/*--------------------------------*- C++ -*----------------------------------*\
  =========                 |
  \\      /  F ield         | OpenFOAM: The Open Source CFD Toolbox
   \\    /   O peration     | Website:  https://openfoam.org
    \\  /    A nd           | Version:  8
     \\/     M anipulation  |
\*---------------------------------------------------------------------------*/
FoamFile
{
    version     2.0;
    format      ascii;
    class       volScalarField;
    location    "1";
    object      u;
}
// * * * * * * * * * * * * * * * * * * * * * * * * * * * * * * * * * * * * * //

dimensions      [0 0 0 0 0 0 0];

internalField   nonuniform List<scalar> 
2500
(
0.992821
0.980095
0.970329
0.96342
0.958859
0.956034
0.954391
0.953493
0.953035
0.95282
0.952728
0.952693
0.952675
0.952654
0.952609
0.952519
0.952344
0.952017
0.951421
0.950366
0.94856
0.94558
0.940858
0.933687
0.923263
0.908774
0.889516
0.86502
0.83515
0.800129
0.760483
0.716937
0.670303
0.621366
0.570826
0.519276
0.467246
0.415283
0.363996
0.314067
0.266219
0.221161
0.17954
0.141892
0.108597
0.0798484
0.055619
0.0356449
0.0194043
0.00607285
0.992046
0.978493
0.968761
0.962213
0.958069
0.955593
0.954196
0.95345
0.953075
0.9529
0.952822
0.952788
0.952769
0.952745
0.952706
0.952631
0.952491
0.95223
0.951752
0.950892
0.949388
0.946847
0.942711
0.936253
0.926603
0.912826
0.894065
0.869718
0.839589
0.80395
0.763456
0.718999
0.671538
0.621969
0.571014
0.519195
0.466925
0.414645
0.362932
0.312485
0.264073
0.21846
0.176348
0.138328
0.104836
0.0761086
0.0521539
0.0327294
0.0173506
0.00532415
0.990884
0.976246
0.966671
0.960688
0.957121
0.955088
0.953976
0.953391
0.953096
0.952952
0.952882
0.952847
0.952823
0.9528
0.952766
0.95271
0.952609
0.952423
0.952081
0.951456
0.950337
0.948388
0.945105
0.939775
0.931469
0.919085
0.901476
0.877705
0.847343
0.810642
0.768443
0.721934
0.672471
0.621361
0.569581
0.517545
0.465242
0.412708
0.360364
0.308982
0.259491
0.212828
0.16985
0.131284
0.097667
0.069296
0.0461799
0.0280316
0.0143073
0.0042925
0.989524
0.973826
0.964555
0.959227
0.956251
0.954632
0.95377
0.953319
0.953087
0.952969
0.952907
0.952872
0.952848
0.952826
0.952799
0.952758
0.952689
0.952565
0.952336
0.951914
0.951143
0.94976
0.947346
0.943258
0.936572
0.926056
0.910237
0.887696
0.857583
0.820007
0.775834
0.726354
0.673291
0.618827
0.56501
0.512619
0.460836
0.408555
0.355674
0.303083
0.252089
0.204004
0.159991
0.120989
0.0876504
0.0602653
0.0387291
0.0225683
0.0110347
0.00324473
0.988083
0.971476
0.962628
0.957957
0.955512
0.954241
0.953581
0.953238
0.953059
0.952964
0.952911
0.95288
0.952858
0.952838
0.952817
0.952787
0.952741
0.95266
0.952513
0.952241
0.951738
0.950814
0.949146
0.946198
0.941126
0.932665
0.919092
0.898487
0.869505
0.832016
0.786645
0.734317
0.676743
0.616868
0.558534
0.504299
0.453
0.40148
0.348292
0.294338
0.241544
0.191869
0.146944
0.107964
0.0756164
0.0500326
0.0308175
0.0171629
0.00802693
0.00232375
0.986644
0.969329
0.960973
0.956909
0.954914
0.953921
0.95342
0.953162
0.953025
0.95295
0.952907
0.95288
0.95286
0.952844
0.952826
0.952805
0.952773
0.95272
0.952627
0.952457
0.952141
0.951551
0.950452
0.948431
0.944771
0.938276
0.927101
0.908898
0.881741
0.845054
0.798997
0.744226
0.682732
0.617846
0.554002
0.495654
0.443171
0.391899
0.338239
0.282683
0.227895
0.176701
0.131311
0.0931122
0.0626455
0.0396673
0.0233207
0.0123863
0.0055458
0.00158924
0.985276
0.967457
0.959613
0.956083
0.954452
0.953675
0.953293
0.953098
0.952994
0.952935
0.9529
0.952877
0.95286
0.952845
0.952831
0.952814
0.952792
0.952757
0.952697
0.952592
0.952397
0.95203
0.951331
0.949996
0.947452
0.942639
0.93371
0.917954
0.892631
0.856288
0.8087
0.751078
0.686608
0.619169
0.552439
0.490267
0.434664
0.381855
0.326715
0.268982
0.211986
0.159503
0.114285
0.0777244
0.0499544
0.0301399
0.0168691
0.00854209
0.00367106
0.00104744
0.984038
0.965894
0.958539
0.955456
0.95411
0.953495
0.953199
0.953049
0.952969
0.952922
0.952893
0.952873
0.952858
0.952845
0.952833
0.952819
0.952802
0.952777
0.952738
0.952672
0.952551
0.952324
0.951886
0.951021
0.94929
0.945791
0.938759
0.925169
0.901167
0.863852
0.81306
0.751909
0.685245
0.617211
0.550565
0.487463
0.42935
0.37388
0.316109
0.255436
0.195909
0.142284
0.0977327
0.0633925
0.0387329
0.0221903
0.0118053
0.00570446
0.00236236
0.000675043
0.982974
0.964648
0.957726
0.954999
0.953867
0.953368
0.953133
0.953014
0.95295
0.952911
0.952887
0.952869
0.952856
0.952844
0.952833
0.952821
0.952806
0.952788
0.95276
0.952715
0.952637
0.952493
0.952215
0.951652
0.950472
0.94793
0.942394
0.930636
0.907571
0.868212
0.812506
0.74699
0.678585
0.610927
0.545685
0.483808
0.425563
0.368744
0.308869
0.24534
0.183114
0.128165
0.0841519
0.0518676
0.0300133
0.0162764
0.0082185
0.00379342
0.00152005
0.000437091
0.982119
0.963708
0.957139
0.954679
0.9537
0.953282
0.953088
0.95299
0.952936
0.952903
0.952881
0.952866
0.952853
0.952842
0.952831
0.95282
0.952807
0.952791
0.952768
0.952734
0.952679
0.95258
0.952392
0.952007
0.951176
0.949291
0.944901
0.934802
0.913071
0.872404
0.811295
0.739655
0.668396
0.600914
0.537234
0.477196
0.420388
0.364647
0.305566
0.241564
0.177594
0.120975
0.0764453
0.0449293
0.0246317
0.0126223
0.0060352
0.00265818
0.00103208
0.00029875
0.981495
0.963055
0.956745
0.954471
0.953593
0.953226
0.953058
0.952973
0.952926
0.952897
0.952877
0.952862
0.95285
0.952839
0.952828
0.952817
0.952804
0.952788
0.952767
0.952737
0.952689
0.952609
0.952462
0.952168
0.95153
0.950057
0.94652
0.93803
0.91873
0.880027
0.817014
0.738326
0.660077
0.589642
0.526076
0.467356
0.412208
0.358853
0.30372
0.243784
0.181446
0.123826
0.0772925
0.0442044
0.0232559
0.011319
0.00511972
0.00214224
0.000801416
0.000231157
0.981116
0.962673
0.95652
0.954353
0.953534
0.953195
0.953042
0.952964
0.95292
0.952893
0.952873
0.952859
0.952846
0.952835
0.952824
0.952811
0.952797
0.95278
0.952756
0.952723
0.952673
0.952591
0.952446
0.952168
0.951592
0.950308
0.947305
0.940204
0.924048
0.890801
0.832983
0.752742
0.664892
0.584358
0.515406
0.455324
0.400851
0.34968
0.299344
0.246882
0.191274
0.136026
0.0874933
0.0505684
0.0262755
0.0123632
0.00532609
0.00211222
0.00075416
0.000212648
0.98099
0.962548
0.956448
0.954316
0.953515
0.953185
0.953036
0.95296
0.952917
0.95289
0.95287
0.952855
0.952842
0.95283
0.952817
0.952803
0.952786
0.952765
0.952735
0.952692
0.952626
0.952519
0.952334
0.951995
0.951337
0.949983
0.947068
0.940684
0.926981
0.899517
0.850729
0.77734
0.686336
0.593079
0.510875
0.443345
0.386886
0.336853
0.290135
0.244508
0.197982
0.149918
0.102943
0.0625045
0.0331705
0.0154674
0.00645016
0.00244498
0.000833581
0.000227056
0.981119
0.962678
0.956525
0.954356
0.953535
0.953195
0.95304
0.952962
0.952917
0.952888
0.952868
0.952852
0.952838
0.952824
0.952809
0.952792
0.95277
0.95274
0.952698
0.952635
0.952535
0.952369
0.952084
0.951574
0.950634
0.948841
0.945346
0.938467
0.925095
0.900206
0.857415
0.791781
0.704436
0.605425
0.510423
0.431567
0.370336
0.320545
0.276315
0.234872
0.194813
0.154736
0.113821
0.0741742
0.0413372
0.0195957
0.00808663
0.00298823
0.000988499
0.000261222
0.981503
0.963068
0.956756
0.954478
0.953597
0.953227
0.953056
0.952969
0.95292
0.952889
0.952866
0.952848
0.952832
0.952816
0.952797
0.952775
0.952744
0.952701
0.952637
0.952535
0.952369
0.952088
0.9516
0.950738
0.94919
0.94639
0.941315
0.932189
0.916116
0.88885
0.845239
0.781002
0.695871
0.596614
0.496982
0.41196
0.348137
0.300023
0.25872
0.220105
0.183346
0.14793
0.112952
0.0780936
0.0462448
0.022813
0.00957164
0.00354767
0.00116949
0.000304364
0.982136
0.963735
0.957162
0.954695
0.953709
0.953285
0.953086
0.952984
0.952927
0.952891
0.952865
0.952844
0.952825
0.952805
0.952781
0.952749
0.952705
0.952638
0.952533
0.952362
0.952072
0.951573
0.950702
0.949169
0.946474
0.941762
0.933643
0.919965
0.897668
0.862888
0.811654
0.741426
0.653328
0.554117
0.456177
0.373638
0.314252
0.272768
0.237205
0.201992
0.167595
0.1347
0.103237
0.0730296
0.0452336
0.0234918
0.0103074
0.00396432
0.00134439
0.000350998
0.983007
0.964703
0.957774
0.955034
0.953889
0.953379
0.953135
0.95301
0.952939
0.952895
0.952864
0.952839
0.952815
0.952789
0.952756
0.952711
0.952642
0.952534
0.952357
0.952057
0.95154
0.950638
0.949062
0.946316
0.941585
0.933578
0.920365
0.899293
0.867105
0.820452
0.756907
0.676382
0.582538
0.483422
0.390576
0.315955
0.266154
0.235878
0.210304
0.180798
0.1494
0.118924
0.0902156
0.0636532
0.0402134
0.0219325
0.0102884
0.00424091
0.00152427
0.000405666
0.984097
0.966
0.958637
0.955529
0.954158
0.953523
0.953212
0.95305
0.952959
0.952903
0.952864
0.952833
0.952802
0.952767
0.952719
0.952649
0.952539
0.952358
0.95205
0.951517
0.950585
0.948954
0.946122
0.941269
0.933129
0.91984
0.898893
0.867269
0.82192
0.76065
0.683252
0.592528
0.494639
0.398444
0.313873
0.249619
0.209939
0.190313
0.176381
0.155705
0.129172
0.102055
0.0766694
0.0538638
0.0345563
0.0198275
0.010098
0.00456161
0.00177199
0.000484935
0.985381
0.967653
0.959803
0.956231
0.954554
0.953739
0.953328
0.953111
0.952989
0.952916
0.952865
0.952824
0.952783
0.952732
0.952661
0.95255
0.952367
0.952055
0.951511
0.950557
0.948881
0.945966
0.940976
0.93264
0.91912
0.897972
0.866298
0.821212
0.760667
0.684481
0.595213
0.498356
0.401576
0.313151
0.240241
0.187599
0.156553
0.143305
0.137303
0.126165
0.106984
0.0849726
0.064047
0.0456063
0.0303184
0.018594
0.0103863
0.00517818
0.00218425
0.000614989
0.986821
0.969681
0.961332
0.957202
0.955124
0.954059
0.953503
0.953204
0.953036
0.952936
0.952868
0.952812
0.952754
0.952679
0.952567
0.952385
0.952073
0.951527
0.950562
0.948859
0.945883
0.94078
0.932256
0.918473
0.897026
0.865098
0.81993
0.759596
0.683975
0.595531
0.499472
0.402966
0.313579
0.237553
0.178665
0.138011
0.114361
0.104132
0.10068
0.0955376
0.0842269
0.0690344
0.0536986
0.0399588
0.0282961
0.0188254
0.0115313
0.00629942
0.00286686
0.000827622
0.988373
0.972083
0.963279
0.958513
0.955929
0.954528
0.953765
0.953345
0.953108
0.952967
0.952871
0.952793
0.952708
0.952593
0.952411
0.952103
0.951563
0.950602
0.948893
0.945889
0.940715
0.932051
0.918039
0.896286
0.86404
0.818647
0.758312
0.682998
0.595149
0.499805
0.403849
0.314511
0.237674
0.17671
0.132248
0.102805
0.0856911
0.0775476
0.0742714
0.0712529
0.0653159
0.0565429
0.0467748
0.0372782
0.0284719
0.0205193
0.0136298
0.0080506
0.00391711
0.00115696
0.989979
0.974827
0.965684
0.96024
0.957047
0.955203
0.954153
0.953558
0.953217
0.953013
0.952876
0.952761
0.952632
0.952448
0.952145
0.951617
0.950672
0.948981
0.945986
0.940795
0.932059
0.917893
0.89589
0.86333
0.81765
0.757185
0.682013
0.594609
0.499913
0.404599
0.315654
0.23877
0.177196
0.131468
0.0999712
0.0799318
0.0683185
0.0623154
0.0593559
0.0571058
0.0538885
0.0492113
0.0434515
0.0370597
0.0302818
0.0233382
0.0165808
0.010467
0.00540969
0.00163646
0.991581
0.977846
0.968554
0.962448
0.95856
0.95616
0.954721
0.953875
0.95338
0.95308
0.952878
0.952705
0.952503
0.952199
0.951683
0.950765
0.949112
0.946162
0.94101
0.932283
0.918059
0.895901
0.863088
0.817115
0.756432
0.681249
0.594121
0.499954
0.405268
0.316835
0.240174
0.178464
0.132257
0.0999868
0.0789004
0.065983
0.0585654
0.0545448
0.0523287
0.0507067
0.0488247
0.0462202
0.0427303
0.0383094
0.0329611
0.0268051
0.0201521
0.0134918
0.00738121
0.00229494
0.993118
0.981036
0.97185
0.965176
0.960547
0.957481
0.955533
0.954337
0.953615
0.953171
0.952866
0.952598
0.95227
0.951758
0.950868
0.949266
0.946392
0.941332
0.932693
0.918517
0.896321
0.863355
0.817129
0.756176
0.68084
0.593794
0.499976
0.405813
0.317899
0.241575
0.179923
0.133508
0.100842
0.0792595
0.0658009
0.0578314
0.0533132
0.0508097
0.049351
0.0482762
0.0471193
0.0455419
0.0432799
0.0401075
0.0358502
0.0304499
0.0240408
0.0169825
0.00981643
0.00315177
0.994535
0.984258
0.975473
0.968409
0.963061
0.959242
0.956657
0.954984
0.953933
0.953266
0.952798
0.952373
0.951831
0.950957
0.949412
0.946634
0.941707
0.933226
0.9192
0.897092
0.864094
0.817692
0.75646
0.680855
0.593689
0.499992
0.406175
0.318705
0.242753
0.181275
0.134804
0.101906
0.0800038
0.0662153
0.0579502
0.0531917
0.0505263
0.0490335
0.0481344
0.0474547
0.0467249
0.0457126
0.0441812
0.0418717
0.0385187
0.0339045
0.0279391
0.0207357
0.0126436
0.00421236
0.995788
0.987356
0.979264
0.972061
0.966095
0.961481
0.958128
0.955819
0.954287
0.953275
0.952545
0.951866
0.950967
0.949474
0.946808
0.94205
0.933785
0.919996
0.898094
0.865196
0.818725
0.757247
0.681295
0.593825
0.500008
0.406311
0.319145
0.24354
0.182308
0.135906
0.102908
0.0808004
0.0667742
0.0582931
0.0533661
0.0505876
0.0490428
0.0481689
0.0476269
0.0472022
0.046734
0.0460669
0.0450157
0.0433434
0.0407583
0.0369392
0.0315914
0.0245268
0.0157425
0.00546532
0.996848
0.990184
0.983017
0.975959
0.96955
0.96415
0.959893
0.95672
0.954458
0.952881
0.951724
0.950649
0.94919
0.946687
0.942169
0.934199
0.92074
0.899158
0.866492
0.820077
0.758425
0.682101
0.594187
0.500024
0.406206
0.31916
0.243824
0.182871
0.136645
0.103679
0.081483
0.0673075
0.0586683
0.0536079
0.0507336
0.0491324
0.048242
0.0477304
0.0474023
0.0471342
0.0468293
0.0463845
0.0456627
0.0444667
0.042519
0.039453
0.0348244
0.0281497
0.018964
0.00688206
0.997705
0.992619
0.986508
0.979848
0.973195
0.967039
0.961691
0.95727
0.95378
0.951175
0.949293
0.947671
0.945455
0.941435
0.934017
0.9211
0.900013
0.867743
0.821536
0.759826
0.683165
0.594732
0.500046
0.405879
0.318751
0.243568
0.182885
0.136912
0.104099
0.0819408
0.0677172
0.05899
0.0538378
0.0508882
0.049235
0.0483166
0.047801
0.0474974
0.0472947
0.0471218
0.0469196
0.0466204
0.0461252
0.0452792
0.0438397
0.0414403
0.0375519
0.0314456
0.0221536
0.0084188
0.998364
0.99459
0.989533
0.983419
0.976662
0.969718
0.96294
0.956549
0.950789
0.946111
0.942894
0.940644
0.937685
0.931682
0.920068
0.900029
0.868532
0.822804
0.76123
0.684346
0.595401
0.500087
0.405391
0.317987
0.242815
0.18235
0.13667
0.10411
0.0821069
0.0679409
0.0592054
0.0540139
0.051019
0.0493277
0.0483832
0.0478546
0.047552
0.0473676
0.0472387
0.047124
0.046987
0.0467831
0.0464423
0.0458471
0.0447966
0.0429533
0.0397604
0.0343158
0.0251733
0.0100207
0.998843
0.996083
0.991949
0.98637
0.979481
0.971528
0.962722
0.953225
0.943457
0.934684
0.928747
0.925729
0.922452
0.914309
0.897195
0.867752
0.82329
0.762326
0.685489
0.596151
0.500195
0.404851
0.317002
0.241688
0.181353
0.13596
0.103714
0.0819608
0.0679493
0.059285
0.0541111
0.0511071
0.049398
0.0484367
0.0478965
0.0475889
0.0474075
0.0472921
0.0472072
0.0471285
0.0470333
0.0468919
0.0466551
0.0462354
0.0454724
0.0440709
0.0414874
0.0367205
0.0279174
0.0116274
0.999172
0.997133
0.993701
0.988469
0.981175
0.971704
0.960041
0.946301
0.930965
0.915773
0.904462
0.89932
0.895868
0.885639
0.861989
0.821335
0.762447
0.686421
0.597034
0.500528
0.404469
0.316025
0.240404
0.18007
0.134902
0.102974
0.0815268
0.0677443
0.0592203
0.0541174
0.0511414
0.0494378
0.0484729
0.047927
0.0476153
0.047433
0.047321
0.0472462
0.0471881
0.0471322
0.0470641
0.0469636
0.0467962
0.0464972
0.0459408
0.0448765
0.0427984
0.0386677
0.0303187
0.0131786
0.999385
0.997816
0.994822
0.989614
0.981406
0.969682
0.954394
0.935953
0.915027
0.893016
0.873835
0.862697
0.856695
0.843446
0.812401
0.759759
0.686849
0.598424
0.501644
0.404787
0.315519
0.239333
0.178788
0.133702
0.102028
0.08088
0.0673598
0.0590235
0.0540345
0.0511187
0.0494431
0.0484886
0.0479451
0.0476329
0.04745
0.047339
0.0472676
0.0472171
0.0471757
0.0471345
0.0470841
0.0470105
0.0468893
0.0466722
0.0462609
0.0454459
0.0437687
0.0401967
0.0323466
0.0146193
0.999515
0.998228
0.995438
0.989902
0.980172
0.965444
0.946136
0.92333
0.897945
0.870827
0.844295
0.823619
0.809687
0.790061
0.750381
0.686127
0.601556
0.505361
0.407472
0.316748
0.23935
0.17808
0.132731
0.101107
0.0801596
0.0668712
0.0587307
0.0538785
0.0510455
0.0494151
0.0484833
0.0479501
0.0476421
0.0474607
0.0473507
0.0472809
0.0472334
0.0471978
0.0471671
0.0471356
0.0470969
0.0470411
0.0469504
0.0467883
0.0464771
0.0458415
0.0444706
0.041363
0.034
0.015903
0.999594
0.998476
0.995759
0.989712
0.978067
0.959786
0.936347
0.909784
0.881076
0.850599
0.819202
0.789696
0.764122
0.733846
0.684045
0.609424
0.516578
0.417462
0.323618
0.243093
0.179548
0.132895
0.100707
0.0796349
0.0664222
0.0584149
0.0536841
0.0509381
0.0493615
0.0484602
0.0479432
0.0476433
0.0474659
0.0473579
0.0472895
0.0472437
0.0472108
0.0471845
0.0471608
0.0471357
0.0471048
0.0470608
0.0469902
0.0468647
0.0466212
0.0461114
0.0449662
0.0422255
0.0352969
0.0169934
0.999649
0.998656
0.996036
0.989693
0.976508
0.954766
0.92697
0.896763
0.8653
0.832405
0.798007
0.762795
0.727232
0.685748
0.626362
0.543823
0.445883
0.346672
0.258574
0.188346
0.137112
0.102332
0.0800345
0.0663573
0.0582378
0.0535263
0.0508305
0.0492981
0.0484268
0.047928
0.0476384
0.0474666
0.0473616
0.047295
0.0472507
0.0472193
0.0471952
0.047175
0.0471558
0.047135
0.0471093
0.0470731
0.0470156
0.0469138
0.0467152
0.0462907
0.0453047
0.0428379
0.0362647
0.017864
0.999696
0.998831
0.996452
0.990428
0.977187
0.953755
0.921906
0.887048
0.85207
0.816653
0.779895
0.74128
0.699977
0.651863
0.588039
0.503018
0.403386
0.304129
0.218998
0.154761
0.11115
0.083884
0.0678106
0.0586854
0.0536102
0.0508096
0.0492621
0.0483998
0.0479123
0.0476313
0.0474649
0.0473632
0.0472986
0.0472555
0.0472253
0.0472026
0.0471842
0.0471678
0.0471516
0.0471337
0.0471114
0.0470801
0.0470308
0.0469439
0.0467734
0.0464035
0.0455225
0.043244
0.0369318
0.0184968
0.999739
0.999011
0.997012
0.991913
0.980404
0.958663
0.925826
0.886179
0.845264
0.805187
0.765127
0.723685
0.679455
0.629663
0.568433
0.489577
0.394575
0.295564
0.208219
0.142585
0.0997936
0.0749054
0.0615334
0.0546539
0.051159
0.0493665
0.0484256
0.0479164
0.0476313
0.0474655
0.0473652
0.0473017
0.0472597
0.0472302
0.0472083
0.0471909
0.0471761
0.0471622
0.047148
0.0471319
0.0471116
0.0470832
0.0470385
0.0469598
0.0468049
0.0464654
0.0456441
0.0434754
0.0373223
0.0188808
0.999773
0.999166
0.997555
0.99355
0.984533
0.966829
0.937495
0.897056
0.850081
0.802018
0.755492
0.709865
0.663147
0.613114
0.556655
0.489125
0.40692
0.313664
0.22266
0.149271
0.100483
0.0730193
0.059316
0.0529318
0.0500175
0.0486627
0.0480047
0.0476662
0.0474813
0.047374
0.047308
0.047265
0.0472354
0.0472137
0.0471967
0.0471826
0.0471699
0.0471576
0.0471446
0.0471295
0.0471103
0.047083
0.0470401
0.0469643
0.0468147
0.0464854
0.0456837
0.0435515
0.037452
0.0190104
0.999787
0.999246
0.997888
0.994674
0.987637
0.973724
0.949432
0.912507
0.863974
0.808726
0.753117
0.700656
0.65032
0.599149
0.544676
0.484594
0.415642
0.335107
0.247257
0.167017
0.109199
0.0759516
0.0597963
0.0526946
0.0496919
0.0484081
0.0478319
0.0475542
0.0474091
0.047327
0.0472767
0.0472437
0.0472204
0.0472029
0.0471887
0.0471765
0.0471651
0.0471537
0.0471413
0.0471266
0.0471074
0.04708
0.0470362
0.0469584
0.0468046
0.0464664
0.0456466
0.0434795
0.0373274
0.0188843
0.999769
0.999199
0.997858
0.99488
0.988681
0.976744
0.955796
0.922707
0.876174
0.818553
0.756216
0.69628
0.641147
0.587792
0.532643
0.473923
0.410357
0.339923
0.261674
0.182986
0.119973
0.0812703
0.0619702
0.0534795
0.0499428
0.0484701
0.0478324
0.0475377
0.0473905
0.0473106
0.0472634
0.0472332
0.0472122
0.0471963
0.0471834
0.0471721
0.0471613
0.0471503
0.047138
0.047123
0.047103
0.0470738
0.0470265
0.0469417
0.0467737
0.0464069
0.0455294
0.0432547
0.0369448
0.0185052
0.999701
0.998968
0.997342
0.993965
0.987378
0.975368
0.955071
0.923555
0.879025
0.822406
0.758436
0.694434
0.635353
0.579611
0.522804
0.462765
0.399086
0.331603
0.260345
0.188705
0.127596
0.086929
0.0651978
0.0550986
0.0507094
0.048824
0.0479927
0.0476083
0.0474198
0.0473211
0.0472656
0.0472318
0.0472094
0.0471932
0.0471803
0.0471691
0.0471584
0.0471472
0.0471345
0.0471186
0.0470969
0.0470642
0.0470102
0.0469124
0.0467184
0.0462998
0.0453209
0.0428615
0.0362921
0.017881
0.999563
0.99848
0.996207
0.991782
0.983724
0.969987
0.948132
0.915848
0.871835
0.816885
0.75466
0.691131
0.631256
0.574437
0.516192
0.454315
0.389073
0.321415
0.25301
0.187494
0.131788
0.0924288
0.069364
0.0576063
0.05207
0.049528
0.0483483
0.0477852
0.0475066
0.0473629
0.047285
0.0472402
0.0472125
0.0471936
0.0471794
0.0471674
0.0471562
0.0471444
0.0471308
0.0471134
0.0470887
0.0470504
0.0469857
0.046867
0.0466321
0.0461332
0.0450014
0.0422743
0.0353517
0.0170257
0.999325
0.997638
0.994296
0.988195
0.97781
0.961267
0.936608
0.902267
0.857716
0.804091
0.744564
0.683891
0.62612
0.57065
0.512537
0.449434
0.382789
0.314755
0.248091
0.18694
0.136148
0.0988328
0.0748309
0.0612414
0.0542088
0.0507099
0.0489788
0.0481142
0.0476758
0.047449
0.0473284
0.0472617
0.0472228
0.0471981
0.0471809
0.0471672
0.0471548
0.047142
0.047127
0.0471072
0.0470781
0.0470315
0.0469506
0.0468005
0.0465049
0.0458898
0.044544
0.0414609
0.0341055
0.015962
0.998953
0.996329
0.991458
0.983131
0.96986
0.950046
0.922276
0.885715
0.840497
0.788014
0.731017
0.673285
0.618145
0.565336
0.509733
0.447561
0.380831
0.313392
0.248922
0.1913
0.143712
0.107369
0.0820462
0.06629
0.0573614
0.052548
0.0500041
0.0486692
0.04797
0.0476026
0.0474079
0.0473025
0.0472435
0.0472084
0.0471857
0.047169
0.0471547
0.0471402
0.0471232
0.0471001
0.0470649
0.0470063
0.0469021
0.0467068
0.0463246
0.0455481
0.0439172
0.0403874
0.0325432
0.0147235
0.998411
0.994454
0.987614
0.976679
0.960333
0.937354
0.906888
0.868689
0.823299
0.772105
0.717317
0.661761
0.608101
0.556829
0.504346
0.445997
0.382154
0.317268
0.255774
0.201003
0.154946
0.118259
0.0911018
0.0728989
0.0617245
0.0552291
0.0515688
0.0495479
0.0484493
0.0478586
0.0475425
0.0473728
0.04728
0.0472273
0.0471954
0.0471737
0.0471564
0.0471398
0.0471203
0.0470931
0.0470499
0.0469751
0.0468385
0.04658
0.0460785
0.045086
0.0430905
0.039027
0.0306714
0.0133559
0.997676
0.991973
0.982837
0.969182
0.949967
0.924384
0.892036
0.853056
0.808131
0.758456
0.705662
0.651708
0.59852
0.547
0.4957
0.441466
0.383132
0.323257
0.265682
0.213355
0.167984
0.130495
0.101513
0.0809082
0.0673353
0.058874
0.0538017
0.0508539
0.0491855
0.0482618
0.0477588
0.0474873
0.0473404
0.0472594
0.0472126
0.0471832
0.0471617
0.0471424
0.0471202
0.0470887
0.0470362
0.046941
0.0467616
0.0464187
0.045759
0.0444877
0.0420433
0.0373716
0.0285241
0.0119169
0.996755
0.988965
0.977432
0.961271
0.939735
0.91235
0.879011
0.840009
0.795996
0.747911
0.696917
0.644326
0.591445
0.539164
0.487381
0.43499
0.381173
0.326709
0.273646
0.224166
0.179993
0.142417
0.112304
0.0897626
0.0739445
0.0634277
0.0567417
0.0526536
0.0502396
0.0488574
0.0480863
0.0476642
0.0474355
0.0473111
0.0472419
0.047201
0.0471739
0.0471518
0.0471279
0.047093
0.0470313
0.0469127
0.0466806
0.0462301
0.0453683
0.0437491
0.0407732
0.0354448
0.0261741
0.0104756
0.995707
0.985693
0.971968
0.95382
0.930704
0.902333
0.868716
0.83015
0.787172
0.740509
0.691018
0.639636
0.587292
0.534758
0.482455
0.430419
0.378639
0.327529
0.278066
0.231557
0.189358
0.152657
0.122295
0.0985238
0.0809151
0.0685306
0.0602253
0.0548954
0.0516119
0.0496632
0.0485443
0.0479192
0.047577
0.0473914
0.0472904
0.047234
0.0472003
0.0471765
0.0471531
0.0471175
0.0470483
0.0469041
0.0466085
0.0460242
0.0449122
0.0428786
0.0393116
0.0333292
0.0237536
0.00911619
0.994676
0.982649
0.967271
0.947846
0.923891
0.895164
0.861672
0.823652
0.78154
0.735927
0.687515
0.637068
0.585355
0.533075
0.480805
0.428986
0.378031
0.328462
0.281001
0.236544
0.19605
0.160411
0.130282
0.105935
0.0871744
0.0733975
0.0637469
0.057289
0.0531531
0.0506117
0.0491083
0.0482483
0.0477698
0.0475091
0.047369
0.0472944
0.0472545
0.0472315
0.0472116
0.0471778
0.0471005
0.0469245
0.04655
0.0458044
0.0444068
0.0419313
0.0377866
0.0312387
0.0215071
0.00795363
0.993927
0.980596
0.964355
0.944381
0.920152
0.891403
0.858108
0.82046
0.778839
0.733781
0.685933
0.636004
0.584717
0.532754
0.480724
0.429174
0.378634
0.329697
0.283063
0.239517
0.199871
0.16485
0.13498
0.110484
0.0912261
0.0767373
0.0663134
0.0591416
0.0544197
0.0514402
0.0496343
0.0485795
0.0479832
0.0476558
0.047481
0.0473908
0.0473465
0.0473247
0.0473074
0.0472719
0.0471805
0.0469652
0.0465072
0.0456091
0.0439655
0.0411415
0.0365804
0.0296708
0.0199055
0.0071791
)
;

boundaryField
{
    left
    {
        type            fixedValue;
        value           uniform 1;
    }
    right
    {
        type            fixedValue;
        value           uniform 0;
    }
    bottom
    {
        type            zeroGradient;
    }
    top
    {
        type            zeroGradient;
    }
    frontAndBack
    {
        type            empty;
    }
}


// ************************************************************************* //
