/*--------------------------------*- C++ -*----------------------------------*\
  =========                 |
  \\      /  F ield         | OpenFOAM: The Open Source CFD Toolbox
   \\    /   O peration     | Website:  https://openfoam.org
    \\  /    A nd           | Version:  8
     \\/     M anipulation  |
\*---------------------------------------------------------------------------*/
FoamFile
{
    version     2.0;
    format      ascii;
    class       volScalarField;
    location    "1";
    object      v;
}
// * * * * * * * * * * * * * * * * * * * * * * * * * * * * * * * * * * * * * //

dimensions      [0 0 0 0 0 0 0];

internalField   nonuniform List<scalar> 
2500
(
0.141786
0.148542
0.158897
0.16999
0.179277
0.184839
0.185536
0.180951
0.171342
0.157665
0.141522
0.124821
0.109248
0.0958805
0.0851541
0.0770516
0.0713431
0.0677605
0.0660956
0.0662426
0.068209
0.0721037
0.0780994
0.0863479
0.0968251
0.109105
0.122134
0.134197
0.143256
0.147598
0.146371
0.139686
0.128411
0.113894
0.0977349
0.0815278
0.0665714
0.0536507
0.0430154
0.0345301
0.0278707
0.0226728
0.0186104
0.0154217
0.0129084
0.0109246
0.00936672
0.0081668
0.0072953
0.00678188
0.382007
0.400889
0.430386
0.462265
0.488985
0.505002
0.507177
0.494373
0.467192
0.428245
0.382272
0.335109
0.291799
0.255313
0.226563
0.205172
0.190257
0.180935
0.176568
0.176848
0.18181
0.191814
0.207464
0.229409
0.257922
0.292178
0.329405
0.364553
0.391309
0.404363
0.401264
0.382572
0.350945
0.310279
0.26516
0.22021
0.179178
0.144201
0.115774
0.0932974
0.0757283
0.0620058
0.0512396
0.0427463
0.0360243
0.0307125
0.0265563
0.0233891
0.0211362
0.0198586
0.573166
0.599499
0.641163
0.68586
0.722404
0.743714
0.746705
0.730094
0.693483
0.638874
0.572565
0.50388
0.441089
0.388707
0.347778
0.317449
0.29629
0.283002
0.276685
0.276914
0.283747
0.297699
0.319675
0.350755
0.39165
0.441577
0.496599
0.548569
0.586857
0.603176
0.595154
0.565323
0.518214
0.458949
0.393369
0.327909
0.268183
0.217385
0.176096
0.143283
0.117379
0.096887
0.0805977
0.0675956
0.0572094
0.048953
0.0424797
0.0375591
0.0340829
0.0321278
0.714536
0.741958
0.78499
0.829116
0.862341
0.880005
0.882281
0.868604
0.835687
0.781065
0.709188
0.63155
0.559499
0.499141
0.451826
0.41657
0.391783
0.376058
0.368441
0.368487
0.376263
0.392328
0.417685
0.453586
0.500967
0.559064
0.622978
0.681639
0.7205
0.730235
0.711866
0.671996
0.616665
0.550072
0.476498
0.401929
0.332807
0.273247
0.224182
0.184562
0.152725
0.127094
0.106397
0.089658
0.0761516
0.0653399
0.0568322
0.0503623
0.0458004
0.0432351
0.811324
0.834562
0.869904
0.903148
0.924697
0.934259
0.935116
0.927356
0.905656
0.862484
0.797702
0.72257
0.650484
0.589021
0.540189
0.503333
0.477091
0.460217
0.451858
0.451616
0.459561
0.476217
0.502519
0.539633
0.588399
0.647834
0.712184
0.768161
0.79885
0.796364
0.766565
0.719089
0.660207
0.59316
0.520446
0.446037
0.375491
0.313202
0.260645
0.217201
0.181513
0.152215
0.128163
0.108452
0.0923849
0.0794312
0.0691937
0.0613956
0.055898
0.0528024
0.872954
0.88967
0.913969
0.934517
0.945555
0.94932
0.949308
0.945579
0.933151
0.902792
0.850351
0.784578
0.718749
0.661107
0.614358
0.578446
0.552466
0.535487
0.526844
0.526224
0.533693
0.549695
0.574997
0.61052
0.656792
0.712482
0.771389
0.819608
0.840298
0.827922
0.790814
0.738609
0.677112
0.609935
0.539685
0.468934
0.401181
0.339894
0.286753
0.24167
0.203772
0.172044
0.145574
0.123602
0.105516
0.0908332
0.0791779
0.0702811
0.0640067
0.0604717
0.909851
0.92035
0.934935
0.946163
0.951251
0.952503
0.952191
0.950099
0.942344
0.920796
0.880069
0.825906
0.769465
0.718511
0.676158
0.64295
0.618488
0.602197
0.593621
0.592541
0.599015
0.613381
0.636203
0.6681
0.709234
0.75799
0.808355
0.847578
0.860709
0.843148
0.802312
0.746901
0.683097
0.615362
0.546754
0.479385
0.415229
0.356361
0.304133
0.258768
0.219816
0.186612
0.158494
0.134878
0.115265
0.0992417
0.0864721
0.0767064
0.0698184
0.0659421
0.930883
0.93671
0.944547
0.950254
0.95259
0.952969
0.952528
0.950788
0.944692
0.928092
0.896557
0.853584
0.807357
0.764326
0.727605
0.698173
0.676064
0.661014
0.652755
0.651146
0.656225
0.668217
0.687488
0.714367
0.748698
0.78875
0.829233
0.85969
0.867744
0.848018
0.805042
0.747179
0.681897
0.614285
0.547295
0.482641
0.421552
0.365169
0.314361
0.26941
0.230126
0.196114
0.166936
0.142175
0.121454
0.104439
0.090843
0.0804372
0.0731054
0.0689954
0.942408
0.945207
0.948945
0.951634
0.952689
0.952699
0.952036
0.950008
0.944181
0.930412
0.905896
0.872711
0.836235
0.801292
0.770672
0.745566
0.726306
0.712858
0.705088
0.7029
0.706295
0.715387
0.730358
0.751295
0.777807
0.808202
0.838171
0.859835
0.863502
0.842814
0.798969
0.739905
0.674401
0.607861
0.54288
0.480739
0.422242
0.368054
0.318709
0.274451
0.235231
0.200836
0.171005
0.145472
0.12398
0.106281
0.0921318
0.0813217
0.0737349
0.0695172
0.94849
0.949512
0.95094
0.951958
0.952243
0.951884
0.950785
0.948172
0.942265
0.930591
0.911669
0.886697
0.858915
0.831629
0.807105
0.786535
0.770396
0.758785
0.751636
0.748852
0.750375
0.756205
0.766358
0.780734
0.798791
0.818982
0.837969
0.850136
0.848351
0.826508
0.783434
0.725343
0.661182
0.596611
0.534019
0.474393
0.418273
0.366068
0.318119
0.274635
0.235656
0.201105
0.170862
0.144804
0.122797
0.104679
0.0902497
0.0792982
0.0716856
0.0675186
0.951555
0.951597
0.951762
0.95178
0.95143
0.950571
0.948908
0.945766
0.940002
0.930294
0.915963
0.897697
0.87734
0.856991
0.838308
0.822304
0.80945
0.799863
0.793472
0.790129
0.789682
0.792005
0.796971
0.804343
0.813535
0.823228
0.830935
0.832786
0.823884
0.799616
0.758263
0.70354
0.642586
0.580918
0.521079
0.46403
0.410204
0.359883
0.313292
0.270604
0.231922
0.197288
0.166723
0.140256
0.117901
0.0996004
0.0851868
0.0744164
0.0670764
0.0631641
0.952996
0.952522
0.951998
0.951374
0.950483
0.949122
0.94699
0.943605
0.938316
0.930493
0.919892
0.906958
0.892736
0.878479
0.86526
0.85378
0.844354
0.837003
0.831563
0.827773
0.825344
0.824
0.823488
0.82352
0.823599
0.822759
0.819296
0.810679
0.793817
0.765867
0.725687
0.675232
0.618933
0.561126
0.504437
0.450056
0.398492
0.35001
0.304781
0.262935
0.224584
0.189853
0.158919
0.132017
0.109381
0.0911091
0.0770602
0.0668891
0.0602107
0.0568036
0.953612
0.952878
0.95198
0.950948
0.94966
0.947942
0.945565
0.942236
0.93763
0.931505
0.923865
0.915067
0.905762
0.89669
0.888457
0.881393
0.875534
0.870675
0.866458
0.862434
0.858115
0.853035
0.846832
0.839272
0.830148
0.819025
0.805005
0.786659
0.76225
0.730261
0.690169
0.643043
0.591325
0.53777
0.484527
0.432899
0.383572
0.336895
0.293052
0.252142
0.214232
0.179439
0.148044
0.120551
0.0975752
0.0795122
0.0662431
0.0571909
0.0516339
0.0489969
0.953868
0.953011
0.951916
0.950643
0.949115
0.947212
0.944795
0.941715
0.937851
0.933177
0.927835
0.922172
0.916672
0.911818
0.907908
0.904945
0.902623
0.900422
0.897709
0.893779
0.887865
0.879216
0.86731
0.85208
0.833848
0.81295
0.789356
0.762543
0.731673
0.695989
0.65526
0.610076
0.561752
0.51189
0.461946
0.413024
0.36587
0.320948
0.278507
0.238655
0.201413
0.16681
0.135071
0.106889
0.0834333
0.0656831
0.053601
0.0461873
0.0421689
0.0405041
0.954037
0.953129
0.951936
0.950533
0.948881
0.946918
0.944581
0.941826
0.938653
0.935156
0.931551
0.928189
0.925491
0.923819
0.923296
0.923665
0.924316
0.924462
0.923279
0.919857
0.91306
0.90158
0.884466
0.861824
0.83482
0.804862
0.772834
0.738893
0.70271
0.663864
0.622181
0.577932
0.531796
0.484671
0.43746
0.390951
0.345803
0.302535
0.26149
0.22282
0.186533
0.152586
0.121067
0.0926035
0.0687726
0.0513822
0.0406903
0.0351759
0.0328614
0.0322046
0.954281
0.953355
0.952115
0.950642
0.948932
0.94697
0.94475
0.942299
0.939693
0.937086
0.934732
0.932974
0.93219
0.932659
0.934354
0.936785
0.939112
0.940515
0.940338
0.937756
0.931234
0.918414
0.897255
0.867882
0.832703
0.794558
0.755248
0.715385
0.674866
0.633365
0.590661
0.546787
0.502032
0.45685
0.411749
0.36723
0.323802
0.282
0.242291
0.204918
0.169896
0.137147
0.106686
0.0789984
0.055637
0.0388896
0.0294804
0.0256256
0.0247651
0.0249333
0.954701
0.953767
0.952495
0.950973
0.949224
0.947267
0.945137
0.942906
0.940695
0.938692
0.937159
0.936422
0.93681
0.938507
0.941312
0.944483
0.947046
0.948425
0.948462
0.946671
0.94126
0.928534
0.904622
0.869368
0.826798
0.781452
0.73598
0.691252
0.647218
0.603539
0.55991
0.516187
0.472394
0.428678
0.38525
0.342361
0.30035
0.259741
0.221202
0.185199
0.151783
0.120822
0.0922949
0.0666184
0.0450934
0.0297326
0.0214189
0.0186078
0.01863
0.0192899
0.955359
0.954412
0.953102
0.951525
0.94972
0.94773
0.945619
0.943484
0.941472
0.939787
0.938692
0.938495
0.93948
0.941744
0.944926
0.948076
0.950196
0.951044
0.950862
0.949388
0.944736
0.932154
0.905857
0.865291
0.816195
0.764734
0.714204
0.665578
0.618775
0.573405
0.529082
0.485525
0.44257
0.400136
0.358197
0.316777
0.276016
0.236366
0.198724
0.16404
0.132578
0.104088
0.0784107
0.0558339
0.0372822
0.0240503
0.0167614
0.0144058
0.0147204
0.0155361
0.956301
0.955327
0.953958
0.952299
0.950398
0.948312
0.946119
0.943933
0.941911
0.940265
0.939259
0.939195
0.940338
0.942752
0.946001
0.949031
0.950833
0.951308
0.950795
0.948995
0.94383
0.929857
0.900223
0.854506
0.799857
0.743504
0.68905
0.637465
0.58862
0.542082
0.497404
0.454208
0.412191
0.3711
0.330716
0.290858
0.251462
0.212823
0.175946
0.142407
0.113132
0.087824
0.0659133
0.0472601
0.0322051
0.021312
0.0149574
0.0127009
0.0129069
0.0136404
0.957563
0.956546
0.955091
0.95331
0.951259
0.948998
0.94661
0.944213
0.941965
0.94008
0.938826
0.938513
0.939428
0.941672
0.944857
0.947944
0.949822
0.950196
0.9492
0.946258
0.938802
0.920982
0.886381
0.835681
0.776735
0.716901
0.659722
0.60612
0.55596
0.508809
0.4642
0.421696
0.380891
0.341404
0.302863
0.264927
0.227363
0.190298
0.154679
0.122457
0.0954358
0.0736894
0.0560657
0.0415843
0.02986
0.0209918
0.0153655
0.013018
0.0128946
0.0134052
0.959178
0.958102
0.956531
0.954587
0.952326
0.949808
0.947109
0.944339
0.941647
0.93924
0.937388
0.936417
0.936656
0.938293
0.941087
0.944135
0.946214
0.946518
0.944576
0.939186
0.92717
0.903039
0.862433
0.807594
0.74602
0.684282
0.625603
0.570904
0.520135
0.472937
0.428876
0.387491
0.348311
0.310852
0.274632
0.239199
0.204231
0.169774
0.136668
0.106823
0.0823842
0.0639187
0.0500692
0.039091
0.0299806
0.0226221
0.0175008
0.0149487
0.0143691
0.0145673
0.961177
0.960034
0.958321
0.956173
0.953648
0.950794
0.947675
0.944378
0.94103
0.937814
0.934987
0.932878
0.931845
0.932146
0.933689
0.935773
0.937162
0.936492
0.93235
0.922676
0.90414
0.872798
0.826961
0.769793
0.707509
0.645416
0.586359
0.531371
0.480616
0.433904
0.390891
0.351127
0.314093
0.279222
0.245941
0.213738
0.182272
0.151588
0.12243
0.0963747
0.075191
0.0594814
0.0481347
0.0393697
0.0319656
0.0256654
0.0209058
0.0181021
0.017004
0.0168321
0.963581
0.962376
0.960507
0.958128
0.955293
0.952041
0.948412
0.944457
0.940256
0.935945
0.931738
0.927933
0.924868
0.922795
0.921669
0.920916
0.919359
0.915342
0.906833
0.891373
0.866226
0.829283
0.780626
0.723294
0.661935
0.600649
0.542009
0.487291
0.437002
0.391222
0.349747
0.312164
0.2779
0.246295
0.216688
0.18851
0.161416
0.135446
0.111188
0.089734
0.0721932
0.0588992
0.0490914
0.0414765
0.0350451
0.0294763
0.0250182
0.0220083
0.020425
0.0198733
0.966392
0.965152
0.96314
0.960516
0.957344
0.953654
0.949458
0.944753
0.93954
0.933864
0.927857
0.921744
0.915795
0.910192
0.904852
0.899247
0.892317
0.882507
0.867896
0.846387
0.816099
0.776033
0.726775
0.670656
0.610981
0.550941
0.492968
0.438679
0.389039
0.344489
0.30502
0.270242
0.239491
0.211967
0.186869
0.163528
0.141533
0.12083
0.101758
0.0849311
0.070911
0.0598164
0.0511942
0.0442876
0.0384523
0.0334137
0.0292494
0.0261604
0.0242275
0.0233499
0.969578
0.968362
0.966254
0.963402
0.959884
0.955743
0.950969
0.945481
0.939152
0.931873
0.923639
0.914582
0.904915
0.894791
0.884135
0.872519
0.859102
0.842675
0.821782
0.794925
0.760874
0.719076
0.669998
0.615187
0.556937
0.497779
0.440091
0.385903
0.336755
0.293564
0.256549
0.225299
0.198962
0.176482
0.156809
0.139068
0.122673
0.107383
0.0932785
0.0806396
0.0697404
0.0606504
0.0531691
0.0469351
0.0416131
0.0370266
0.0331745
0.0301507
0.0280506
0.0269482
0.973052
0.971949
0.969849
0.966826
0.962973
0.958387
0.953065
0.946831
0.93935
0.93026
0.91936
0.906721
0.892617
0.877327
0.860932
0.843191
0.823518
0.801038
0.774701
0.743451
0.706436
0.663245
0.614097
0.559909
0.502221
0.443063
0.384813
0.330002
0.280924
0.239126
0.205075
0.178218
0.157325
0.140898
0.127481
0.115865
0.105209
0.0950847
0.0854177
0.0763612
0.0681274
0.0608484
0.0545189
0.0490311
0.0442566
0.0401155
0.0365979
0.0337461
0.031638
0.0304219
0.97665
0.975773
0.97384
0.970751
0.966586
0.961548
0.955712
0.948806
0.940184
0.929089
0.915069
0.898242
0.87917
0.858467
0.836472
0.813131
0.788033
0.760509
0.729758
0.69498
0.655511
0.610961
0.561321
0.507032
0.449059
0.389019
0.329344
0.273225
0.223967
0.183901
0.153613
0.132104
0.117493
0.107683
0.100752
0.0951477
0.0898081
0.0842053
0.0782558
0.0721432
0.0661359
0.06046
0.0552467
0.0505417
0.0463461
0.0426562
0.0394841
0.0368604
0.0348476
0.033608
0.980127
0.979575
0.977992
0.974982
0.970524
0.964955
0.958524
0.950909
0.941101
0.927807
0.910266
0.888812
0.864554
0.838584
0.81149
0.783312
0.753705
0.7221
0.687836
0.650252
0.608778
0.562998
0.512709
0.457991
0.399351
0.338065
0.276706
0.219374
0.170716
0.133774
0.108627
0.0931666
0.0846576
0.0806408
0.0790838
0.0783311
0.0772047
0.0751315
0.0720666
0.0682622
0.0640551
0.0597436
0.0555427
0.0515877
0.0479586
0.0447069
0.0418722
0.0394927
0.0376242
0.036419
0.983168
0.982996
0.981898
0.979094
0.974335
0.968034
0.96063
0.951865
0.940519
0.924809
0.903625
0.87757
0.848412
0.817728
0.786262
0.754059
0.720778
0.685907
0.648873
0.609109
0.566096
0.519384
0.468629
0.413641
0.354584
0.292491
0.230207
0.173039
0.127202
0.09586
0.077324
0.0676496
0.0635081
0.0628378
0.0642266
0.0663113
0.0678538
0.0681549
0.0671222
0.0650132
0.0621862
0.0589701
0.0556216
0.0523245
0.0492055
0.0463518
0.0438266
0.0416794
0.0399659
0.0388227
0.985433
0.985631
0.985051
0.982499
0.977378
0.970019
0.960909
0.949931
0.936081
0.917616
0.893177
0.863332
0.830226
0.795769
0.760801
0.725368
0.689148
0.651689
0.612509
0.571124
0.527063
0.479865
0.429096
0.374397
0.315718
0.25398
0.192406
0.137567
0.096961
0.0728303
0.0608136
0.055424
0.053482
0.0537864
0.0558647
0.0589133
0.0617068
0.0633437
0.0635831
0.0626118
0.06076
0.0583532
0.0556615
0.0528909
0.0501924
0.0476739
0.0454133
0.0434691
0.0418976
0.0408215
0.986595
0.987105
0.986982
0.984634
0.979008
0.97014
0.958416
0.943934
0.92631
0.904564
0.877543
0.845321
0.809702
0.772637
0.735073
0.697137
0.658596
0.619109
0.578304
0.5358
0.491191
0.44404
0.39388
0.340278
0.283099
0.223265
0.164319
0.113619
0.0790184
0.0611975
0.0537418
0.0507998
0.0498044
0.0501777
0.052056
0.0551426
0.0583284
0.0605721
0.0614872
0.0611742
0.0599203
0.058035
0.0557871
0.0533895
0.0510023
0.0487414
0.0466901
0.0449095
0.0434545
0.0424371
0.98636
0.987093
0.987299
0.985043
0.978688
0.967795
0.95274
0.934087
0.912176
0.886868
0.857593
0.824054
0.787177
0.748538
0.709142
0.669284
0.6289
0.587809
0.545792
0.502596
0.457918
0.411379
0.362535
0.31095
0.256496
0.200143
0.145494
0.0997769
0.0701432
0.0561703
0.0510053
0.0492051
0.0486921
0.0491672
0.0509685
0.0539987
0.0572483
0.059662
0.0608052
0.0607408
0.0597355
0.0580891
0.0560671
0.0538808
0.0516881
0.0496019
0.047701
0.0460416
0.0446731
0.0436991
0.984464
0.98528
0.985594
0.983239
0.97595
0.962718
0.944166
0.921589
0.895912
0.867422
0.83596
0.801275
0.763634
0.723984
0.683223
0.641802
0.599864
0.55743
0.514475
0.470918
0.426595
0.381225
0.334422
0.285796
0.235265
0.183805
0.134709
0.0941435
0.067846
0.0552645
0.0506119
0.0491379
0.0489559
0.0498044
0.051924
0.0550739
0.0582563
0.0605201
0.0615046
0.0613079
0.0602134
0.058528
0.056516
0.0543814
0.0522699
0.0502798
0.048475
0.0468984
0.0455883
0.0446408
0.98071
0.98137
0.981392
0.978581
0.970267
0.954906
0.933381
0.907705
0.879178
0.848217
0.814801
0.778797
0.740259
0.69965
0.657639
0.61475
0.571322
0.527606
0.483813
0.44009
0.396461
0.352782
0.308748
0.26402
0.218548
0.173202
0.130632
0.0953779
0.0714656
0.0587396
0.0533288
0.0515385
0.0515748
0.0529543
0.0555169
0.0586875
0.0614932
0.0631904
0.0635782
0.0628414
0.0613084
0.0593047
0.0570936
0.0548628
0.0527333
0.0507755
0.0490265
0.0475054
0.0462332
0.0452991
0.975067
0.975235
0.974374
0.97052
0.96111
0.944363
0.921001
0.893314
0.862853
0.830104
0.795082
0.757708
0.718
0.676198
0.63277
0.588251
0.543149
0.497968
0.453213
0.409339
0.366635
0.325134
0.284615
0.244752
0.205442
0.167296
0.132118
0.102745
0.0815865
0.0687662
0.0622437
0.0596618
0.059485
0.0608879
0.0632149
0.0656455
0.0673412
0.0678103
0.0670261
0.0652678
0.0629137
0.0603073
0.0577009
0.0552496
0.0530304
0.0510681
0.0493582
0.0478851
0.0466445
0.0457188
0.967795
0.967139
0.964824
0.95931
0.948618
0.931227
0.907396
0.878933
0.847413
0.813466
0.77718
0.738509
0.697464
0.654197
0.609049
0.56254
0.515329
0.468204
0.422068
0.377819
0.336136
0.29729
0.261107
0.227165
0.195138
0.16518
0.138176
0.115534
0.0984203
0.0869398
0.0801426
0.0767208
0.0755377
0.0756839
0.0763352
0.0767042
0.0761807
0.074509
0.071811
0.0684487
0.0648443
0.0613469
0.0581744
0.0554186
0.053082
0.0511193
0.0494674
0.0480638
0.0468711
0.0459632
0.959496
0.957831
0.953813
0.946399
0.934317
0.916567
0.893111
0.864929
0.83319
0.798587
0.761345
0.721492
0.679052
0.634129
0.586976
0.538053
0.488109
0.438248
0.389924
0.34474
0.304011
0.268327
0.237457
0.210644
0.18705
0.166152
0.14792
0.13269
0.120784
0.112135
0.106221
0.102291
0.0995776
0.0973767
0.0950547
0.0920915
0.0881822
0.0833277
0.0778282
0.0721646
0.0668233
0.0621491
0.0582854
0.0552054
0.0527881
0.0508852
0.0493567
0.0480838
0.0469887
0.0461317
0.951003
0.948366
0.942809
0.933757
0.920488
0.902425
0.879449
0.851956
0.82056
0.785768
0.747857
0.706947
0.663105
0.616428
0.567101
0.515473
0.46223
0.408675
0.356957
0.309831
0.269739
0.23775
0.21334
0.194995
0.180975
0.169852
0.160728
0.153168
0.146965
0.141885
0.137566
0.133542
0.129325
0.124466
0.118607
0.111543
0.10331
0.0942378
0.0849327
0.076135
0.0684951
0.0623701
0.057764
0.0544346
0.0520577
0.0503395
0.0490519
0.0480201
0.0471219
0.0463875
0.943196
0.939789
0.933111
0.92294
0.908891
0.890619
0.867983
0.841081
0.810147
0.775416
0.737064
0.695219
0.64999
0.601508
0.549944
0.495563
0.438874
0.381067
0.324768
0.274312
0.234133
0.206183
0.189321
0.180704
0.177241
0.176401
0.17648
0.176512
0.176
0.174655
0.172227
0.168437
0.162997
0.155646
0.14622
0.13474
0.121521
0.107264
0.0930415
0.0801076
0.0695075
0.0616836
0.0563948
0.0530101
0.0508782
0.0495174
0.0486258
0.0480018
0.0474779
0.047004
0.936836
0.932924
0.925583
0.914813
0.900399
0.882098
0.859744
0.833277
0.802712
0.768078
0.729396
0.686708
0.640117
0.589795
0.53597
0.47892
0.419081
0.357414
0.29646
0.241737
0.200384
0.176116
0.167214
0.169065
0.176772
0.186465
0.195657
0.203029
0.207995
0.210318
0.209871
0.206528
0.200137
0.19055
0.177696
0.161692
0.143009
0.12266
0.102303
0.084037
0.0697059
0.0599984
0.0542339
0.0510921
0.0494294
0.0485701
0.0482202
0.0482377
0.048403
0.0484451
0.932481
0.928314
0.920702
0.90975
0.895321
0.877203
0.855196
0.829138
0.798895
0.764344
0.725365
0.681881
0.633932
0.581727
0.525606
0.46598
0.403388
0.338818
0.274657
0.216566
0.173492
0.151648
0.149864
0.162031
0.181018
0.201209
0.219266
0.233642
0.243795
0.249625
0.251148
0.248364
0.241215
0.229604
0.213465
0.192895
0.168371
0.141085
0.113303
0.0883314
0.0694093
0.0577354
0.0518281
0.0492148
0.0481163
0.0477573
0.0480421
0.0490603
0.0504884
0.0515097
0.930483
0.926265
0.918678
0.907868
0.893719
0.87602
0.854528
0.828995
0.799163
0.764769
0.725548
0.681291
0.631946
0.577758
0.519261
0.457119
0.392138
0.325599
0.260094
0.201031
0.157186
0.136498
0.140165
0.161829
0.191798
0.222193
0.248705
0.269642
0.284613
0.293705
0.2971
0.294912
0.287142
0.273694
0.254434
0.229328
0.198708
0.163765
0.127289
0.0941042
0.0695879
0.0558186
0.049992
0.0479636
0.0473008
0.0473111
0.0483656
0.0510548
0.0547929
0.0575925
0.931005
0.926895
0.919563
0.909157
0.895561
0.878546
0.857825
0.833063
0.803886
0.769874
0.73059
0.685639
0.634831
0.578448
0.517359
0.452704
0.385715
0.318103
0.252821
0.194958
0.151982
0.132256
0.14031
0.170767
0.21125
0.251302
0.285633
0.312512
0.331783
0.343775
0.348854
0.347245
0.338986
0.323936
0.301827
0.272395
0.235674
0.192643
0.146416
0.103443
0.0719076
0.0553076
0.0492116
0.0474722
0.0470311
0.0474097
0.0497465
0.0554529
0.0632898
0.0691165
0.934058
0.930182
0.923294
0.913528
0.900758
0.884735
0.865122
0.841505
0.813388
0.780184
0.741232
0.695867
0.643639
0.584771
0.520614
0.453246
0.384638
0.316903
0.253099
0.197688
0.156852
0.139291
0.152422
0.191645
0.24201
0.290766
0.3319
0.363797
0.386619
0.400985
0.407459
0.406379
0.397803
0.381512
0.35705
0.323842
0.281489
0.230535
0.174094
0.119931
0.0792037
0.0576555
0.049901
0.0478085
0.0474965
0.048749
0.0538372
0.0650653
0.0796505
0.0901486
0.939528
0.935993
0.929719
0.920822
0.909167
0.894484
0.876398
0.854426
0.827956
0.796228
0.75833
0.713247
0.660106
0.598819
0.531066
0.460315
0.390064
0.322887
0.26139
0.209186
0.172078
0.159702
0.180392
0.228611
0.287518
0.343208
0.38948
0.425003
0.450305
0.466307
0.473776
0.473156
0.464513
0.447534
0.421554
0.385642
0.338893
0.281251
0.215422
0.149649
0.0972081
0.0668492
0.054421
0.050692
0.0506796
0.0544452
0.0654828
0.086031
0.11033
0.127046
0.947198
0.944102
0.938604
0.930806
0.920569
0.907615
0.891548
0.871837
0.847785
0.818487
0.782799
0.739354
0.686798
0.624508
0.553963
0.479554
0.40684
0.339793
0.280911
0.233435
0.203636
0.20115
0.231839
0.287816
0.352166
0.411601
0.460367
0.497481
0.523783
0.540439
0.548384
0.548142
0.539783
0.522909
0.496667
0.459811
0.410979
0.349516
0.27743
0.202298
0.137516
0.0943442
0.072644
0.064884
0.0657411
0.0753027
0.0968517
0.130096
0.165438
0.188676
0.956765
0.9542
0.949638
0.943168
0.93466
0.923848
0.910342
0.893603
0.872906
0.847275
0.815438
0.775818
0.726753
0.667193
0.598071
0.523502
0.449928
0.383335
0.328004
0.288134
0.269765
0.2795
0.318361
0.377022
0.440936
0.499033
0.546414
0.582315
0.607672
0.623737
0.631513
0.631559
0.623942
0.608217
0.58343
0.548174
0.500859
0.440501
0.36845
0.290812
0.218935
0.164313
0.131396
0.117719
0.119995
0.137659
0.170884
0.21501
0.258042
0.285464
0.967872
0.965917
0.962441
0.95752
0.951047
0.942791
0.932404
0.919402
0.903113
0.882621
0.856717
0.823904
0.782615
0.731817
0.672091
0.606631
0.541051
0.481786
0.434677
0.404846
0.396824
0.413143
0.451431
0.503401
0.558423
0.60835
0.649245
0.680325
0.702301
0.716253
0.723086
0.723315
0.716998
0.70371
0.682551
0.652222
0.611293
0.558911
0.49612
0.427435
0.361126
0.306517
0.269906
0.253295
0.256286
0.277596
0.31414
0.358837
0.400501
0.426834
0.980141
0.978864
0.976611
0.973444
0.969288
0.963976
0.957254
0.94876
0.937994
0.924272
0.906703
0.884226
0.855799
0.820822
0.77979
0.73484
0.689721
0.649055
0.617428
0.598736
0.595637
0.608691
0.635447
0.670595
0.707822
0.742078
0.770591
0.792536
0.808186
0.81819
0.823152
0.823432
0.819065
0.809743
0.794828
0.773437
0.744687
0.708201
0.664891
0.617728
0.571755
0.532808
0.505627
0.492823
0.494998
0.511015
0.537735
0.569614
0.599111
0.617993
0.993218
0.992705
0.991833
0.990633
0.989075
0.987092
0.984578
0.98139
0.977327
0.972129
0.96547
0.956985
0.946349
0.933429
0.918472
0.902265
0.886106
0.871589
0.860314
0.853629
0.852402
0.856744
0.865803
0.877866
0.890895
0.903175
0.913652
0.921901
0.927896
0.931791
0.933757
0.933904
0.93224
0.928657
0.922948
0.914846
0.904119
0.890752
0.875179
0.858478
0.842335
0.828658
0.819049
0.814464
0.815161
0.820723
0.83001
0.841103
0.851458
0.858214
)
;

boundaryField
{
    left
    {
        type            zeroGradient;
    }
    right
    {
        type            zeroGradient;
    }
    bottom
    {
        type            fixedValue;
        value           uniform 0;
    }
    top
    {
        type            fixedValue;
        value           uniform 1;
    }
    frontAndBack
    {
        type            empty;
    }
}


// ************************************************************************* //
