/*--------------------------------*- C++ -*----------------------------------*\
  =========                 |
  \\      /  F ield         | OpenFOAM: The Open Source CFD Toolbox
   \\    /   O peration     | Website:  https://openfoam.org
    \\  /    A nd           | Version:  8
     \\/     M anipulation  |
\*---------------------------------------------------------------------------*/
FoamFile
{
    version     2.0;
    format      ascii;
    class       volScalarField;
    location    "1";
    object      muu;
}
// * * * * * * * * * * * * * * * * * * * * * * * * * * * * * * * * * * * * * //

dimensions      [0 2 0 0 0 0 0];

internalField   nonuniform List<scalar> 
2500
(
0.805952
0.52753
0.353203
0.245365
0.17915
0.13902
0.11569
0.103919
0.101141
0.106761
0.121988
0.150172
0.197711
0.275684
0.40236
0.606492
0.930526
1.43133
2.17388
3.21205
4.55383
6.11855
7.70996
9.03716
9.79814
9.79814
9.03716
7.70996
6.11855
4.55383
3.21205
2.17388
1.43133
0.930526
0.606492
0.40236
0.275684
0.197711
0.150172
0.121988
0.106761
0.101141
0.103919
0.11569
0.13902
0.17915
0.245365
0.353203
0.52753
0.805952
0.812135
0.539618
0.366468
0.257887
0.190403
0.149085
0.124876
0.112598
0.109693
0.115567
0.131427
0.160605
0.209397
0.288559
0.415548
0.617331
0.932903
1.41326
2.11489
3.08198
4.31572
5.73827
7.1718
8.35919
9.03716
9.03716
8.35919
7.1718
5.73827
4.31572
3.08198
2.11489
1.41326
0.932903
0.617331
0.415548
0.288559
0.209397
0.160605
0.131427
0.115567
0.109693
0.112598
0.124876
0.149085
0.190403
0.257887
0.366468
0.539618
0.812135
0.824421
0.564179
0.393996
0.284378
0.214608
0.17103
0.145101
0.131815
0.128657
0.135037
0.152151
0.183259
0.234403
0.315631
0.44273
0.639194
0.93759
1.37843
2.00363
2.84158
3.88359
5.05863
6.22146
7.1718
7.70996
7.70996
7.1718
6.22146
5.05863
3.88359
2.84158
2.00363
1.37843
0.93759
0.639194
0.44273
0.315631
0.234403
0.183259
0.152151
0.135037
0.128657
0.131815
0.145101
0.17103
0.214608
0.284378
0.393996
0.564179
0.824421
0.842636
0.601941
0.437801
0.327875
0.255444
0.208872
0.180534
0.165796
0.162269
0.169385
0.188292
0.222064
0.276233
0.359639
0.485503
0.672408
0.944454
1.32925
1.85206
2.52477
3.33073
4.21061
5.05863
5.73827
6.11855
6.11855
5.73827
5.05863
4.21061
3.33073
2.52477
1.85206
1.32925
0.944454
0.672408
0.485503
0.359639
0.276233
0.222064
0.188292
0.169385
0.162269
0.165796
0.180534
0.208872
0.255444
0.327875
0.437801
0.601941
0.842636
0.866493
0.653883
0.500923
0.393258
0.319112
0.269638
0.238663
0.222244
0.21828
0.226264
0.247217
0.283819
0.340708
0.424901
0.546212
0.717364
0.953296
1.26897
1.67499
2.17088
2.73737
3.33073
3.88359
4.31572
4.55383
4.55383
4.31572
3.88359
3.33073
2.73737
2.17088
1.67499
1.26897
0.953296
0.717364
0.546212
0.424901
0.340708
0.283819
0.247217
0.226264
0.21828
0.222244
0.238663
0.269638
0.319112
0.393258
0.500923
0.653883
0.866493
0.895561
0.721078
0.587354
0.487534
0.415109
0.364625
0.331935
0.314214
0.309892
0.31858
0.341055
0.379299
0.436569
0.517459
0.62782
0.774383
0.963853
1.20125
1.48741
1.81603
2.17088
2.52477
2.84158
3.08198
3.21205
3.21205
3.08198
2.84158
2.52477
2.17088
1.81603
1.48741
1.20125
0.963853
0.774383
0.62782
0.517459
0.436569
0.379299
0.341055
0.31858
0.309892
0.314214
0.331935
0.364625
0.415109
0.487534
0.587354
0.721078
0.895561
0.929227
0.804443
0.701805
0.619991
0.557069
0.511015
0.480052
0.462842
0.458595
0.467111
0.488789
0.52461
0.576071
0.645061
0.73362
0.843542
0.975798
1.12977
1.3024
1.48741
1.67499
1.85206
2.00363
2.11489
2.17388
2.17388
2.11489
2.00363
1.85206
1.67499
1.48741
1.3024
1.12977
0.975798
0.843542
0.73362
0.645061
0.576071
0.52461
0.488789
0.467111
0.458595
0.462842
0.480052
0.511015
0.557069
0.619991
0.701805
0.804443
0.929227
0.96667
0.904391
0.849142
0.8019
0.763232
0.733416
0.712547
0.700634
0.697658
0.703612
0.718508
0.742363
0.775147
0.816715
0.866707
0.924432
0.988749
1.05797
1.12977
1.20125
1.26897
1.32925
1.37843
1.41326
1.43133
1.43133
1.41326
1.37843
1.32925
1.26897
1.20125
1.12977
1.05797
0.988749
0.924432
0.866707
0.816715
0.775147
0.742363
0.718508
0.703612
0.697658
0.700634
0.712547
0.733416
0.763232
0.8019
0.849142
0.904391
0.96667
1.00683
1.02038
1.03338
1.04533
1.05575
1.06423
1.07042
1.07405
1.07497
1.07313
1.06863
1.06164
1.05247
1.04149
1.02914
1.0159
1.00227
0.988749
0.975798
0.963853
0.953296
0.944454
0.93759
0.932903
0.930526
0.930526
0.932903
0.93759
0.944454
0.953296
0.963853
0.975798
0.988749
1.00227
1.0159
1.02914
1.04149
1.05247
1.06164
1.06863
1.07313
1.07497
1.07405
1.07042
1.06423
1.05575
1.04533
1.03338
1.02038
1.00683
1.04841
1.15043
1.25613
1.36051
1.45758
1.54087
1.60416
1.64232
1.6521
1.63264
1.58563
1.51503
1.42643
1.32622
1.22077
1.1158
1.0159
0.924432
0.843542
0.774383
0.717364
0.672408
0.639194
0.617331
0.606492
0.606492
0.617331
0.639194
0.672408
0.717364
0.774383
0.843542
0.924432
1.0159
1.1158
1.22077
1.32622
1.42643
1.51503
1.58563
1.63264
1.6521
1.64232
1.60416
1.54087
1.45758
1.36051
1.25613
1.15043
1.04841
1.08987
1.29063
1.51461
1.75152
1.98566
2.19706
2.36412
2.46751
2.49432
2.44109
2.31464
2.13046
1.90909
1.67198
1.43789
1.22077
1.02914
0.866707
0.73362
0.62782
0.546212
0.485503
0.44273
0.415548
0.40236
0.40236
0.415548
0.44273
0.485503
0.546212
0.62782
0.73362
0.866707
1.02914
1.22077
1.43789
1.67198
1.90909
2.13046
2.31464
2.44109
2.49432
2.46751
2.36412
2.19706
1.98566
1.75152
1.51461
1.29063
1.08987
1.12953
1.43488
1.79962
2.21057
2.64013
3.04655
3.37951
3.59057
3.64591
3.53628
3.27985
2.91668
2.4972
2.06984
1.67198
1.32622
1.04149
0.816715
0.645061
0.517459
0.424901
0.359639
0.315631
0.288559
0.275684
0.275684
0.288559
0.315631
0.359639
0.424901
0.517459
0.645061
0.816715
1.04149
1.32622
1.67198
2.06984
2.4972
2.91668
3.27985
3.53628
3.64591
3.59057
3.37951
3.04655
2.64013
2.21057
1.79962
1.43488
1.12953
1.16559
1.57499
2.09421
2.71263
3.39163
4.06103
4.62704
4.99345
5.09047
4.89866
4.45605
3.84445
3.16228
2.4972
1.90909
1.42643
1.05247
0.775147
0.576071
0.436569
0.340708
0.276233
0.234403
0.209397
0.197711
0.197711
0.209397
0.234403
0.276233
0.340708
0.436569
0.576071
0.775147
1.05247
1.42643
1.90909
2.4972
3.16228
3.84445
4.45605
4.89866
5.09047
4.99345
4.62704
4.06103
3.39163
2.71263
2.09421
1.57499
1.16559
1.19629
1.70117
2.37403
3.21309
4.17256
5.15114
6.00046
6.55991
6.70923
6.41449
5.74192
4.83128
3.84445
2.91668
2.13046
1.51503
1.06164
0.742363
0.52461
0.379299
0.283819
0.222064
0.183259
0.160605
0.150172
0.150172
0.160605
0.183259
0.222064
0.283819
0.379299
0.52461
0.742363
1.06164
1.51503
2.13046
2.91668
3.84445
4.83128
5.74192
6.41449
6.70923
6.55991
6.00046
5.15114
4.17256
3.21309
2.37403
1.70117
1.19629
1.22002
1.80321
2.61007
3.65173
4.87998
6.16524
7.30294
8.06224
8.26612
7.86416
6.95462
5.74192
4.45605
3.27985
2.31464
1.58563
1.06863
0.718508
0.488789
0.341055
0.247217
0.188292
0.152151
0.131427
0.121988
0.121988
0.131427
0.152151
0.188292
0.247217
0.341055
0.488789
0.718508
1.06863
1.58563
2.31464
3.27985
4.45605
5.74192
6.95462
7.86416
8.26612
8.06224
7.30294
6.16524
4.87998
3.65173
2.61007
1.80321
1.22002
1.2355
1.87185
2.77368
3.96412
5.39568
6.91851
8.28364
9.20241
9.45007
8.96218
7.86416
6.41449
4.89866
3.53628
2.44109
1.63264
1.07313
0.703612
0.467111
0.31858
0.226264
0.169385
0.135037
0.115567
0.106761
0.106761
0.115567
0.135037
0.169385
0.226264
0.31858
0.467111
0.703612
1.07313
1.63264
2.44109
3.53628
4.89866
6.41449
7.86416
8.96218
9.45007
9.20241
8.28364
6.91851
5.39568
3.96412
2.77368
1.87185
1.2355
1.24183
1.90044
2.84293
4.09831
5.62006
7.24965
8.71799
9.70959
9.97731
9.45007
8.26612
6.70923
5.09047
3.64591
2.49432
1.6521
1.07497
0.697658
0.458595
0.309892
0.21828
0.162269
0.128657
0.109693
0.101141
0.101141
0.109693
0.128657
0.162269
0.21828
0.309892
0.458595
0.697658
1.07497
1.6521
2.49432
3.64591
5.09047
6.70923
8.26612
9.45007
9.97731
9.70959
8.71799
7.24965
5.62006
4.09831
2.84293
1.90044
1.24183
1.23865
1.88606
2.80803
4.03052
5.5065
7.08182
8.49761
9.4521
9.70959
9.20241
8.06224
6.55991
4.99345
3.59057
2.46751
1.64232
1.07405
0.700634
0.462842
0.314214
0.222244
0.165796
0.131815
0.112598
0.103919
0.103919
0.112598
0.131815
0.165796
0.222244
0.314214
0.462842
0.700634
1.07405
1.64232
2.46751
3.59057
4.99345
6.55991
8.06224
9.20241
9.70959
9.4521
8.49761
7.08182
5.5065
4.03052
2.80803
1.88606
1.23865
1.22615
1.8302
2.67394
3.77288
5.07885
6.4544
7.67815
8.49761
8.71799
8.28364
7.30294
6.00046
4.62704
3.37951
2.36412
1.60416
1.07042
0.712547
0.480052
0.331935
0.238663
0.180534
0.145101
0.124876
0.11569
0.11569
0.124876
0.145101
0.180534
0.238663
0.331935
0.480052
0.712547
1.07042
1.60416
2.36412
3.37951
4.62704
6.00046
7.30294
8.28364
8.71799
8.49761
7.67815
6.4544
5.07885
3.77288
2.67394
1.8302
1.22615
1.20504
1.73836
2.45906
3.36942
4.42234
5.50652
6.4544
7.08182
7.24965
6.91851
6.16524
5.15114
4.06103
3.04655
2.19706
1.54087
1.06423
0.733416
0.511015
0.364625
0.269638
0.208872
0.17103
0.149085
0.13902
0.13902
0.149085
0.17103
0.208872
0.269638
0.364625
0.511015
0.733416
1.06423
1.54087
2.19706
3.04655
4.06103
5.15114
6.16524
6.91851
7.24965
7.08182
6.4544
5.50652
4.42234
3.36942
2.45906
1.73836
1.20504
1.1765
1.6191
2.1905
2.88236
3.65314
4.42234
5.07885
5.5065
5.62006
5.39568
4.87998
4.17256
3.39163
2.64013
1.98566
1.45758
1.05575
0.763232
0.557069
0.415109
0.319112
0.255444
0.214608
0.190403
0.17915
0.17915
0.190403
0.214608
0.255444
0.319112
0.415109
0.557069
0.763232
1.05575
1.45758
1.98566
2.64013
3.39163
4.17256
4.87998
5.39568
5.62006
5.5065
5.07885
4.42234
3.65314
2.88236
2.1905
1.6191
1.1765
1.14204
1.4825
1.89782
2.37495
2.88236
3.36942
3.77288
4.03052
4.09831
3.96412
3.65173
3.21309
2.71263
2.21057
1.75152
1.36051
1.04533
0.8019
0.619991
0.487534
0.393258
0.327875
0.284378
0.257887
0.245365
0.245365
0.257887
0.284378
0.327875
0.393258
0.487534
0.619991
0.8019
1.04533
1.36051
1.75152
2.21057
2.71263
3.21309
3.65173
3.96412
4.09831
4.03052
3.77288
3.36942
2.88236
2.37495
1.89782
1.4825
1.14204
1.10338
1.33863
1.60734
1.89782
2.1905
2.45906
2.67394
2.80803
2.84293
2.77368
2.61007
2.37403
2.09421
1.79962
1.51461
1.25613
1.03338
0.849142
0.701805
0.587354
0.500923
0.437801
0.393996
0.366468
0.353203
0.353203
0.366468
0.393996
0.437801
0.500923
0.587354
0.701805
0.849142
1.03338
1.25613
1.51461
1.79962
2.09421
2.37403
2.61007
2.77368
2.84293
2.80803
2.67394
2.45906
2.1905
1.89782
1.60734
1.33863
1.10338
1.06232
1.19629
1.33863
1.4825
1.6191
1.73836
1.8302
1.88606
1.90044
1.87185
1.80321
1.70117
1.57499
1.43488
1.29063
1.15043
1.02038
0.904391
0.804443
0.721078
0.653883
0.601941
0.564179
0.539618
0.52753
0.52753
0.539618
0.564179
0.601941
0.653883
0.721078
0.804443
0.904391
1.02038
1.15043
1.29063
1.43488
1.57499
1.70117
1.80321
1.87185
1.90044
1.88606
1.8302
1.73836
1.6191
1.4825
1.33863
1.19629
1.06232
1.0206
1.06232
1.10338
1.14204
1.1765
1.20504
1.22615
1.23865
1.24183
1.2355
1.22002
1.19629
1.16559
1.12953
1.08987
1.04841
1.00683
0.96667
0.929227
0.895561
0.866493
0.842636
0.824421
0.812135
0.805952
0.805952
0.812135
0.824421
0.842636
0.866493
0.895561
0.929227
0.96667
1.00683
1.04841
1.08987
1.12953
1.16559
1.19629
1.22002
1.2355
1.24183
1.23865
1.22615
1.20504
1.1765
1.14204
1.10338
1.06232
1.0206
0.979814
0.941336
0.906308
0.875629
0.849979
0.829845
0.815559
0.807329
0.805264
0.809391
0.819656
0.83592
0.857937
0.885326
0.91754
0.95383
0.993217
1.03448
1.07616
1.11662
1.15408
1.18675
1.21297
1.23132
1.24077
1.24077
1.23132
1.21297
1.18675
1.15408
1.11662
1.07616
1.03448
0.993217
0.95383
0.91754
0.885326
0.857937
0.83592
0.819656
0.809391
0.805264
0.807329
0.815559
0.829845
0.849979
0.875629
0.906308
0.941336
0.979814
0.941336
0.835919
0.747035
0.674535
0.617626
0.575255
0.54639
0.530205
0.526195
0.53423
0.554568
0.58783
0.634927
0.696921
0.774817
0.869241
0.980024
1.10572
1.2431
1.38681
1.52933
1.66129
1.77249
1.85316
1.89563
1.89563
1.85316
1.77249
1.66129
1.52933
1.38681
1.2431
1.10572
0.980024
0.869241
0.774817
0.696921
0.634927
0.58783
0.554568
0.53423
0.526195
0.530205
0.54639
0.575255
0.617626
0.674535
0.747035
0.835919
0.941336
0.906308
0.747035
0.622146
0.526922
0.456517
0.40666
0.373981
0.356122
0.35175
0.360531
0.383132
0.421224
0.477508
0.555673
0.660235
0.796095
0.967698
1.17766
1.4249
1.70255
1.99632
2.28414
2.5381
2.72875
2.83123
2.83123
2.72875
2.5381
2.28414
1.99632
1.70255
1.4249
1.17766
0.967698
0.796095
0.660235
0.555673
0.477508
0.421224
0.383132
0.360531
0.35175
0.356122
0.373981
0.40666
0.456517
0.526922
0.622146
0.747035
0.906308
0.875629
0.674535
0.526922
0.421061
0.346938
0.296787
0.26505
0.248107
0.244003
0.252263
0.273843
0.311226
0.368646
0.452371
0.570933
0.735019
0.956639
1.24704
1.61293
2.05114
2.54286
3.04994
3.51645
3.87767
4.07556
4.07556
3.87767
3.51645
3.04994
2.54286
2.05114
1.61293
1.24704
0.956639
0.735019
0.570933
0.452371
0.368646
0.311226
0.273843
0.252263
0.244003
0.248107
0.26505
0.296787
0.346938
0.421061
0.526922
0.674535
0.875629
0.849979
0.617626
0.456517
0.346938
0.273737
0.226125
0.196895
0.181603
0.177934
0.185334
0.204919
0.239661
0.294843
0.37877
0.503611
0.68607
0.947193
1.31022
1.79511
2.409
3.1337
3.91475
4.65966
5.25203
5.5819
5.5819
5.25203
4.65966
3.91475
3.1337
2.409
1.79511
1.31022
0.947193
0.68607
0.503611
0.37877
0.294843
0.239661
0.204919
0.185334
0.177934
0.181603
0.196895
0.226125
0.273737
0.346938
0.456517
0.617626
0.849979
0.829845
0.575255
0.40666
0.296787
0.226125
0.181603
0.154933
0.141207
0.137938
0.14454
0.1622
0.194132
0.246243
0.32824
0.455154
0.648985
0.939644
1.36348
1.95689
2.74254
3.70868
4.78762
5.84691
6.70757
7.1932
7.1932
6.70757
5.84691
4.78762
3.70868
2.74254
1.95689
1.36348
0.939644
0.648985
0.455154
0.32824
0.246243
0.194132
0.1622
0.14454
0.137938
0.141207
0.154933
0.181603
0.226125
0.296787
0.40666
0.575255
0.829845
0.815559
0.54639
0.373981
0.26505
0.196895
0.154933
0.13024
0.11768
0.114705
0.12072
0.136931
0.166654
0.216121
0.295901
0.422991
0.623381
0.934214
1.40342
2.08311
3.01264
4.19002
5.53913
6.89177
8.00796
8.64381
8.64381
8.00796
6.89177
5.53913
4.19002
3.01264
2.08311
1.40342
0.934214
0.623381
0.422991
0.295901
0.216121
0.166654
0.136931
0.12072
0.114705
0.11768
0.13024
0.154933
0.196895
0.26505
0.373981
0.54639
0.815559
0.807329
0.530205
0.356122
0.248107
0.181603
0.141207
0.11768
0.105797
0.102991
0.108667
0.124035
0.152441
0.200262
0.278507
0.405267
0.608895
0.931056
1.42728
2.16057
3.18254
4.49956
6.03152
7.58642
8.88118
9.62288
9.62288
8.88118
7.58642
6.03152
4.49956
3.18254
2.16057
1.42728
0.931056
0.608895
0.405267
0.278507
0.200262
0.152441
0.124035
0.108667
0.102991
0.105797
0.11768
0.141207
0.181603
0.248107
0.356122
0.530205
0.807329
0.805264
0.526195
0.35175
0.244003
0.177934
0.137938
0.114705
0.102991
0.100227
0.105819
0.120976
0.149048
0.196446
0.27428
0.400911
0.605291
0.930261
1.43337
2.18057
3.22694
4.58127
6.16262
7.77261
9.11633
9.88714
9.88714
9.11633
7.77261
6.16262
4.58127
3.22694
2.18057
1.43337
0.930261
0.605291
0.400911
0.27428
0.196446
0.149048
0.120976
0.105819
0.100227
0.102991
0.114705
0.137938
0.177934
0.244003
0.35175
0.526195
0.805264
0.809391
0.53423
0.360531
0.252263
0.185334
0.14454
0.12072
0.108667
0.105819
0.11158
0.127159
0.155897
0.204137
0.282783
0.409654
0.612506
0.931849
1.42124
2.14082
3.13893
4.41962
5.90372
7.40539
8.653
9.36668
9.36668
8.653
7.40539
5.90372
4.41962
3.13893
2.14082
1.42124
0.931849
0.612506
0.409654
0.282783
0.204137
0.155897
0.127159
0.11158
0.105819
0.108667
0.12072
0.14454
0.185334
0.252263
0.360531
0.53423
0.809391
0.819656
0.554568
0.383132
0.273843
0.204919
0.1622
0.136931
0.124035
0.120976
0.127159
0.143789
0.174158
0.224414
0.304892
0.432032
0.630664
0.935778
1.39177
2.04587
2.93208
4.04503
5.3109
6.57242
7.60876
8.1975
8.1975
7.60876
6.57242
5.3109
4.04503
2.93208
2.04587
1.39177
0.935778
0.630664
0.432032
0.304892
0.224414
0.174158
0.143789
0.127159
0.120976
0.124035
0.136931
0.1622
0.204919
0.273843
0.383132
0.554568
0.819656
0.83592
0.58783
0.421224
0.311226
0.239661
0.194132
0.166654
0.152441
0.149048
0.155897
0.174158
0.206984
0.260115
0.342856
0.469382
0.660052
0.941935
1.34705
1.90618
2.63644
3.52337
4.50321
5.45675
6.22645
6.65901
6.65901
6.22645
5.45675
4.50321
3.52337
2.63644
1.90618
1.34705
0.941935
0.660052
0.469382
0.342856
0.260115
0.206984
0.174158
0.155897
0.149048
0.152441
0.166654
0.194132
0.239661
0.311226
0.421224
0.58783
0.83592
0.857937
0.634927
0.477508
0.368646
0.294843
0.246243
0.216121
0.200262
0.196446
0.204137
0.224414
0.260115
0.316228
0.400449
0.52381
0.701051
0.950144
1.29008
1.7359
2.29059
2.93507
3.62013
4.26616
4.77562
5.05788
5.05788
4.77562
4.26616
3.62013
2.93507
2.29059
1.7359
1.29008
0.950144
0.701051
0.52381
0.400449
0.316228
0.260115
0.224414
0.204137
0.196446
0.200262
0.216121
0.246243
0.294843
0.368646
0.477508
0.634927
0.857937
0.885326
0.696921
0.555673
0.452371
0.37877
0.32824
0.295901
0.278507
0.27428
0.282783
0.304892
0.342856
0.400449
0.483128
0.598094
0.754024
0.960162
1.22442
1.55024
1.93252
2.35349
2.78056
3.16825
3.46549
3.62734
3.62734
3.46549
3.16825
2.78056
2.35349
1.93252
1.55024
1.22442
0.960162
0.754024
0.598094
0.483128
0.400449
0.342856
0.304892
0.282783
0.27428
0.278507
0.295901
0.32824
0.37877
0.452371
0.555673
0.696921
0.885326
0.91754
0.774817
0.660235
0.570933
0.503611
0.455154
0.422991
0.405267
0.400911
0.409654
0.432032
0.469382
0.52381
0.598094
0.695462
0.819153
0.971685
1.15379
1.3631
1.59281
1.83079
2.05972
2.25871
2.40646
2.48534
2.48534
2.40646
2.25871
2.05972
1.83079
1.59281
1.3631
1.15379
0.971685
0.819153
0.695462
0.598094
0.52381
0.469382
0.432032
0.409654
0.400911
0.405267
0.422991
0.455154
0.503611
0.570933
0.660235
0.774817
0.91754
0.95383
0.869241
0.796095
0.735019
0.68607
0.648985
0.623381
0.608895
0.605291
0.612506
0.630664
0.660052
0.701051
0.754024
0.819153
0.896218
0.984346
1.08175
1.18548
1.29135
1.39399
1.48719
1.56447
1.61988
1.64883
1.64883
1.61988
1.56447
1.48719
1.39399
1.29135
1.18548
1.08175
0.984346
0.896218
0.819153
0.754024
0.701051
0.660052
0.630664
0.612506
0.605291
0.608895
0.623381
0.648985
0.68607
0.735019
0.796095
0.869241
0.95383
0.993217
0.980024
0.967698
0.956639
0.947193
0.939644
0.934214
0.931056
0.930261
0.931849
0.935778
0.941935
0.950144
0.960162
0.971685
0.984346
0.997731
1.01138
1.0248
1.0375
1.04899
1.05881
1.06656
1.07192
1.07466
1.07466
1.07192
1.06656
1.05881
1.04899
1.0375
1.0248
1.01138
0.997731
0.984346
0.971685
0.960162
0.950144
0.941935
0.935778
0.931849
0.930261
0.931056
0.934214
0.939644
0.947193
0.956639
0.967698
0.980024
0.993217
1.03448
1.10572
1.17766
1.24704
1.31022
1.36348
1.40342
1.42728
1.43337
1.42124
1.39177
1.34705
1.29008
1.22442
1.15379
1.08175
1.01138
0.94521
0.885135
0.83247
0.78804
0.752303
0.725464
0.707582
0.69865
0.69865
0.707582
0.725464
0.752303
0.78804
0.83247
0.885135
0.94521
1.01138
1.08175
1.15379
1.22442
1.29008
1.34705
1.39177
1.42124
1.43337
1.42728
1.40342
1.36348
1.31022
1.24704
1.17766
1.10572
1.03448
1.07616
1.2431
1.4249
1.61293
1.79511
1.95689
2.08311
2.16057
2.18057
2.14082
2.04587
1.90618
1.7359
1.55024
1.3631
1.18548
1.0248
0.885135
0.767815
0.672308
0.59702
0.539939
0.499094
0.472838
0.460008
0.460008
0.472838
0.499094
0.539939
0.59702
0.672308
0.767815
0.885135
1.0248
1.18548
1.3631
1.55024
1.7359
1.90618
2.04587
2.14082
2.18057
2.16057
2.08311
1.95689
1.79511
1.61293
1.4249
1.2431
1.07616
1.11662
1.38681
1.70255
2.05114
2.409
2.74254
3.01264
3.18254
3.22694
3.13893
2.93208
2.63644
2.29059
1.93252
1.59281
1.29135
1.0375
0.83247
0.672308
0.550652
0.460643
0.396076
0.351917
0.324467
0.311328
0.311328
0.324467
0.351917
0.396076
0.460643
0.550652
0.672308
0.83247
1.0375
1.29135
1.59281
1.93252
2.29059
2.63644
2.93208
3.13893
3.22694
3.18254
3.01264
2.74254
2.409
2.05114
1.70255
1.38681
1.11662
1.15408
1.52933
1.99632
2.54286
3.1337
3.70868
4.19002
4.49956
4.58127
4.41962
4.04503
3.52337
2.93507
2.35349
1.83079
1.39399
1.04899
0.78804
0.59702
0.460643
0.365314
0.300235
0.257494
0.231711
0.219595
0.219595
0.231711
0.257494
0.300235
0.365314
0.460643
0.59702
0.78804
1.04899
1.39399
1.83079
2.35349
2.93507
3.52337
4.04503
4.41962
4.58127
4.49956
4.19002
3.70868
3.1337
2.54286
1.99632
1.52933
1.15408
1.18675
1.66129
2.28414
3.04994
3.91475
4.78762
5.53913
6.03152
6.16262
5.90372
5.3109
4.50321
3.62013
2.78056
2.05972
1.48719
1.05881
0.752303
0.539939
0.396076
0.300235
0.237495
0.197682
0.174269
0.163438
0.163438
0.174269
0.197682
0.237495
0.300235
0.396076
0.539939
0.752303
1.05881
1.48719
2.05972
2.78056
3.62013
4.50321
5.3109
5.90372
6.16262
6.03152
5.53913
4.78762
3.91475
3.04994
2.28414
1.66129
1.18675
1.21297
1.77249
2.5381
3.51645
4.65966
5.84691
6.89177
7.58642
7.77261
7.40539
6.57242
5.45675
4.26616
3.16825
2.25871
1.56447
1.06656
0.725464
0.499094
0.351917
0.257494
0.197682
0.160734
0.139435
0.129702
0.129702
0.139435
0.160734
0.197682
0.257494
0.351917
0.499094
0.725464
1.06656
1.56447
2.25871
3.16825
4.26616
5.45675
6.57242
7.40539
7.77261
7.58642
6.89177
5.84691
4.65966
3.51645
2.5381
1.77249
1.21297
1.23132
1.85316
2.72875
3.87767
5.25203
6.70757
8.00796
8.88118
9.11633
8.653
7.60876
6.22645
4.77562
3.46549
2.40646
1.61988
1.07192
0.707582
0.472838
0.324467
0.231711
0.174269
0.139435
0.119629
0.110654
0.110654
0.119629
0.139435
0.174269
0.231711
0.324467
0.472838
0.707582
1.07192
1.61988
2.40646
3.46549
4.77562
6.22645
7.60876
8.653
9.11633
8.88118
8.00796
6.70757
5.25203
3.87767
2.72875
1.85316
1.23132
1.24077
1.89563
2.83123
4.07556
5.5819
7.1932
8.64381
9.62288
9.88714
9.36668
8.1975
6.65901
5.05788
3.62734
2.48534
1.64883
1.07466
0.69865
0.460008
0.311328
0.219595
0.163438
0.129702
0.110654
0.10206
0.10206
0.110654
0.129702
0.163438
0.219595
0.311328
0.460008
0.69865
1.07466
1.64883
2.48534
3.62734
5.05788
6.65901
8.1975
9.36668
9.88714
9.62288
8.64381
7.1932
5.5819
4.07556
2.83123
1.89563
1.24077
)
;

boundaryField
{
    left
    {
        type            zeroGradient;
    }
    right
    {
        type            zeroGradient;
    }
    bottom
    {
        type            zeroGradient;
    }
    top
    {
        type            zeroGradient;
    }
    frontAndBack
    {
        type            empty;
    }
}


// ************************************************************************* //
