/*--------------------------------*- C++ -*----------------------------------*\
  =========                 |
  \\      /  F ield         | OpenFOAM: The Open Source CFD Toolbox
   \\    /   O peration     | Website:  https://openfoam.org
    \\  /    A nd           | Version:  8
     \\/     M anipulation  |
\*---------------------------------------------------------------------------*/
FoamFile
{
    version     2.0;
    format      ascii;
    class       volScalarField;
    location    "1";
    object      mvv;
}
// * * * * * * * * * * * * * * * * * * * * * * * * * * * * * * * * * * * * * //

dimensions      [0 2 0 0 0 0 0];

internalField   nonuniform List<scalar> 
2500
(
5.34457
4.32695
3.48289
2.78971
2.22546
1.76974
1.40417
1.11263
0.881245
0.698328
0.554164
0.440787
0.351741
0.281844
0.226968
0.183849
0.149921
0.123173
0.102037
0.0852927
0.0719922
0.0614
0.0529461
0.0461888
0.0407858
0.0364725
0.0330443
0.030344
0.0282514
0.0266759
0.0255511
0.0248306
0.0244848
0.0245
0.0248767
0.02563
0.0267908
0.0284071
0.0305472
0.033304
0.0368002
0.041197
0.0467032
0.0535895
0.0622054
0.0730023
0.0865628
0.103638
0.125197
0.152486
4.52008
3.73753
3.07443
2.51778
2.05442
1.67158
1.35732
1.10082
0.892452
0.72385
0.587849
0.478403
0.390468
0.319881
0.263236
0.217766
0.181238
0.151856
0.128188
0.10909
0.0936522
0.0811541
0.0710244
0.0628112
0.0561579
0.0507832
0.0464662
0.0430342
0.0403537
0.0383225
0.0368651
0.035928
0.0354775
0.0354972
0.035988
0.0369675
0.0384711
0.0405538
0.0432935
0.0467946
0.0511937
0.0566672
0.0634405
0.0718006
0.0821115
0.094834
0.110551
0.129997
0.1541
0.184025
3.73291
3.16198
2.66622
2.23951
1.87512
1.56612
1.30573
1.08749
0.905425
0.754138
0.628828
0.525301
0.439935
0.369637
0.311795
0.264216
0.225077
0.192868
0.166344
0.144488
0.126465
0.111597
0.0993332
0.0892265
0.0809161
0.0741116
0.0685799
0.0641358
0.0606335
0.05796
0.0560306
0.054785
0.0541846
0.054211
0.0548649
0.0561665
0.0581561
0.060896
0.0644731
0.069003
0.0746344
0.0815565
0.0900065
0.100281
0.112746
0.127857
0.146176
0.168392
0.195354
0.228098
3.01945
2.62692
2.27673
1.96683
1.69457
1.45697
1.25083
1.0729
0.920028
0.789197
0.677603
0.582684
0.502129
0.43389
0.376161
0.327374
0.286173
0.251396
0.222052
0.197301
0.176435
0.15886
0.144078
0.131675
0.121305
0.112687
0.105587
0.0998159
0.0952224
0.0916871
0.0891196
0.0874545
0.0866497
0.0866851
0.0875615
0.0893009
0.0919474
0.0955681
0.100256
0.106133
0.113354
0.12211
0.13264
0.14523
0.160231
0.178063
0.199233
0.224343
0.254112
0.289392
2.40015
2.14942
1.91908
1.70902
1.51873
1.34741
1.19401
1.05733
0.936095
0.828975
0.734657
0.651863
0.579377
0.516062
0.460867
0.412836
0.371105
0.334899
0.303533
0.276402
0.252977
0.232797
0.215462
0.20063
0.188007
0.177344
0.168431
0.161095
0.155193
0.15061
0.147259
0.145075
0.144016
0.144062
0.145215
0.147496
0.150949
0.155639
0.161658
0.169121
0.178174
0.188994
0.201794
0.216826
0.234387
0.254825
0.278545
0.306012
0.337762
0.374407
1.88171
1.73762
1.60106
1.4725
1.3522
1.24024
1.13659
1.04108
0.953436
0.873338
0.800398
0.734193
0.674287
0.620233
0.571588
0.527923
0.488824
0.453901
0.422789
0.39515
0.370674
0.349078
0.330109
0.313539
0.299167
0.286816
0.276334
0.26759
0.260474
0.254897
0.250789
0.248098
0.246789
0.246847
0.248271
0.251081
0.255311
0.261015
0.268264
0.277151
0.287785
0.300301
0.314851
0.331616
0.350798
0.372627
0.397359
0.42528
0.4567
0.491961
1.46062
1.39253
1.32587
1.261
1.1982
1.13773
1.07975
1.02442
0.971828
0.922043
0.875088
0.830962
0.789638
0.751068
0.71519
0.681927
0.651195
0.622901
0.596951
0.573247
0.551696
0.532202
0.514676
0.499034
0.485197
0.473091
0.462653
0.453823
0.446551
0.440797
0.436525
0.433712
0.432339
0.4324
0.433893
0.436829
0.441225
0.447106
0.454508
0.463472
0.474049
0.486298
0.500285
0.516083
0.533772
0.553436
0.575166
0.599055
0.6252
0.653696
1.12701
1.11016
1.0931
1.07593
1.05873
1.04156
1.02451
1.00764
0.991022
0.97471
0.958764
0.943235
0.928172
0.913618
0.899613
0.886192
0.873388
0.861229
0.849741
0.838944
0.828859
0.819502
0.810887
0.803027
0.795932
0.789611
0.78407
0.779316
0.775353
0.772186
0.769817
0.768247
0.767479
0.767513
0.768349
0.769986
0.772423
0.775658
0.779687
0.784508
0.790115
0.796502
0.803662
0.811586
0.820264
0.829683
0.839829
0.850685
0.862231
0.874446
0.867959
0.883587
0.899936
0.91697
0.934645
0.952915
0.971728
0.991023
1.01074
1.0308
1.05114
1.07166
1.09229
1.11293
1.13348
1.15384
1.1739
1.19355
1.21269
1.23119
1.24896
1.26586
1.28181
1.29668
1.31038
1.32281
1.33389
1.34353
1.35167
1.35824
1.36319
1.36649
1.36811
1.36804
1.36628
1.36284
1.35775
1.35104
1.34278
1.33301
1.32181
1.30927
1.29547
1.2805
1.26447
1.24749
1.22966
1.2111
1.19191
1.17222
0.669946
0.704632
0.742138
0.782561
0.825985
0.872476
0.92208
0.974817
1.03067
1.0896
1.15151
1.21625
1.28365
1.35344
1.42533
1.49893
1.57382
1.6495
1.72541
1.80093
1.87539
1.94809
2.01829
2.08524
2.14816
2.20632
2.25899
2.30548
2.34519
2.37757
2.40218
2.41865
2.42677
2.42641
2.41758
2.40041
2.37513
2.34211
2.30181
2.25476
2.20161
2.14302
2.07973
2.01248
1.94203
1.86916
1.79458
1.719
1.64309
1.56746
0.520384
0.565032
0.614894
0.670441
0.732161
0.800547
0.87609
0.959261
1.0505
1.1502
1.25866
1.37609
1.5026
1.63809
1.78233
1.93485
2.09496
2.26171
2.43388
2.60997
2.78823
2.96664
3.14294
3.31471
3.47937
3.63428
3.77681
3.90439
4.01465
4.10543
4.17494
4.22174
4.24488
4.24385
4.21869
4.16993
4.09856
4.00605
3.89425
3.7653
3.62163
3.46579
3.30043
3.12818
2.95161
2.77313
2.59498
2.41915
2.24739
2.08116
0.408397
0.457187
0.513389
0.578018
0.652194
0.73713
0.834131
0.944573
1.06988
1.21148
1.37079
1.54912
1.74763
1.96723
2.20853
2.47168
2.75632
3.06147
3.38542
3.72568
4.0789
4.44091
4.80668
5.17044
5.52578
5.86584
6.1835
6.47166
6.72352
6.93285
7.09427
7.20353
7.2577
7.2553
7.1964
7.08259
6.91694
6.7038
6.44862
6.1577
5.83787
5.49624
5.13993
4.77576
4.41009
4.04865
3.69637
3.35737
3.03493
2.73146
0.325068
0.37452
0.43317
0.502663
0.58489
0.682009
0.796457
0.930947
1.08845
1.27218
1.48551
1.73191
2.0148
2.33744
2.70266
3.11271
3.56895
4.07156
4.61928
5.20914
5.83618
6.49333
7.17134
7.8588
8.54238
9.20714
9.83707
10.4157
10.9268
11.3554
11.6881
11.9145
12.027
12.022
11.8997
11.664
11.3227
10.8866
10.3692
9.78559
9.15208
8.48512
7.80066
7.11351
6.43685
5.78191
5.15777
4.57131
4.02731
3.52859
0.263367
0.311589
0.370341
0.441899
0.528987
0.63483
0.763219
0.918553
1.10587
1.33086
1.59982
1.91957
2.29731
2.74036
3.25589
3.85042
4.52935
5.29632
6.15256
7.09616
8.12142
9.2183
10.372
11.5629
12.7665
13.9545
15.0952
16.1552
17.1007
17.8999
18.5244
18.9511
19.1638
19.1544
18.9231
18.479
17.8388
17.0261
16.0695
15.0015
13.8555
12.665
11.4614
10.2728
9.12317
8.03184
7.01315
6.07677
5.22806
4.46861
0.217915
0.264044
0.321623
0.393516
0.483256
0.595165
0.734492
0.907539
1.12179
1.38598
1.7102
2.10579
2.58528
3.16208
3.85002
4.66277
5.61288
6.71075
7.9633
9.37258
10.9343
12.6363
14.4579
16.3685
18.3283
20.2886
22.1933
23.9816
25.5911
26.9614
28.0382
28.7769
29.1461
29.1297
28.7285
27.9598
26.8563
25.4635
23.8365
22.0359
20.1243
18.162
16.2045
14.3
12.4875
10.7966
9.24749
7.85138
6.61206
5.527
0.184693
0.228503
0.284356
0.355623
0.44657
0.562562
0.710293
0.898031
1.13587
1.43598
1.81279
2.28311
2.8661
3.58304
4.45681
5.51106
6.76894
8.25142
9.97516
11.95
14.1764
16.6425
19.3219
22.1721
25.1335
28.1302
31.0723
33.8597
36.3879
38.5541
40.2647
41.4424
42.0321
42.0059
41.365
40.1398
38.3875
36.1869
33.6327
30.8282
27.8777
24.8807
21.926
19.0882
16.4253
13.9787
11.7733
9.81986
8.11701
6.65423
0.160761
0.202403
0.256443
0.326662
0.41795
0.536592
0.690608
0.89013
1.14782
1.47931
1.90359
2.44334
3.1251
3.97914
5.03905
6.34068
7.92059
9.81369
12.0502
14.6517
17.6271
20.9679
24.6442
28.601
32.7567
37.0032
41.2087
45.2236
48.8887
52.0457
54.5492
56.2778
57.1449
57.1064
56.1641
54.3661
51.8023
48.5965
44.8956
40.8585
36.6439
32.4003
28.2576
24.3217
20.672
17.3612
14.4174
11.8473
9.64081
7.77543
0.144022
0.183858
0.236287
0.305401
0.396582
0.51687
0.6754
0.88392
1.15738
1.51457
1.97875
2.57823
3.34681
4.32383
5.55389
7.08577
8.97059
11.2589
13.9965
17.2194
20.948
25.1797
29.8834
34.9935
40.4064
45.9805
51.539
56.8775
61.776
66.0133
69.3843
71.7175
72.8896
72.8374
71.5639
69.1375
65.686
61.3846
56.4403
51.0747
45.5074
39.9405
34.5482
29.469
24.8032
20.6132
16.9277
13.7468
11.0487
8.79639
0.13303
0.171534
0.222726
0.290915
0.381836
0.503082
0.664627
0.879463
1.16433
1.54055
2.03486
2.68024
3.51661
4.59113
5.95803
7.67763
9.81426
12.4329
15.5944
19.349
23.7284
28.7376
34.3461
40.4803
47.0182
53.7884
60.5733
67.1181
73.1457
78.3755
82.5462
85.4376
86.8916
86.8269
85.2471
82.2405
77.9711
72.6633
66.5811
60.0054
53.2124
46.454
39.9442
33.8505
28.2904
23.3338
19.0078
15.3049
12.1914
9.61595
0.126849
0.164547
0.214974
0.282565
0.373263
0.494996
0.658254
0.876802
1.16852
1.55633
2.06924
2.7433
3.62248
4.75918
6.2142
8.05576
10.3574
13.1944
16.6382
20.7494
25.5685
31.1065
37.3339
44.1725
51.4883
59.0893
66.7296
74.1188
80.9391
86.8675
91.602
94.8876
96.5409
96.4673
94.6711
91.2548
86.4087
80.3927
73.5118
66.0894
58.4417
50.856
43.5739
36.7826
30.6111
25.1334
20.375
16.3222
12.9322
10.1433
0.124959
0.162402
0.212585
0.27998
0.370598
0.492471
0.656255
0.875965
1.16984
1.56135
2.08021
2.76351
3.65655
4.81348
6.2973
8.17892
10.535
13.4443
16.982
21.2121
26.1784
31.8939
38.3298
45.4063
52.9854
60.8684
68.7995
76.4763
83.567
89.7341
94.6613
98.0818
99.8032
99.7266
97.8564
94.2999
89.2567
82.9989
75.8455
68.1347
60.1965
52.33
44.7865
37.7596
31.3823
25.7297
20.8266
16.657
13.1751
10.3156
0.127201
0.164946
0.215418
0.283044
0.373757
0.495463
0.658623
0.876957
1.16827
1.55541
2.06722
2.73959
3.61623
4.74924
6.19899
8.03326
10.325
13.1489
16.5756
20.6652
25.4577
30.9634
37.1532
43.9488
51.2169
58.7671
66.3549
73.6922
80.4637
86.3492
91.0489
94.3102
95.9512
95.8782
94.0953
90.7043
85.8937
79.9213
73.0895
65.7191
58.1239
50.5888
43.354
36.6052
30.471
25.025
20.2928
16.2612
12.8879
10.1118
0.133763
0.172359
0.223638
0.291895
0.382839
0.504024
0.665367
0.87977
1.16385
1.53874
2.03092
2.67306
3.50459
4.57212
5.92915
7.63513
9.75342
12.3479
15.4782
19.1935
23.5247
28.476
34.017
40.0744
46.5278
53.2079
59.9002
66.3537
72.2957
77.4502
81.5601
84.4091
85.8417
85.7779
84.2214
81.2589
77.0517
71.8203
65.8243
59.3402
52.6396
45.971
39.5452
33.5274
28.0341
23.1345
18.856
15.1917
12.1087
9.55687
0.145198
0.185169
0.237722
0.306925
0.398124
0.518304
0.676513
0.884378
1.15667
1.51193
1.97309
2.56801
3.32989
4.29735
5.51408
7.0278
8.88839
11.1451
13.8423
17.015
20.6823
24.8412
29.4605
34.4754
39.7842
45.2479
50.6935
55.9213
60.7164
64.8629
68.161
70.4432
71.5896
71.5386
70.293
67.9195
64.5427
60.3333
55.4932
50.2388
44.7842
39.3273
34.0385
29.0537
24.4713
20.3532
16.7279
13.5964
10.9379
8.71651
0.16248
0.204294
0.258483
0.328797
0.420078
0.53854
0.692098
0.890733
1.1469
1.47594
1.89647
2.43067
3.10444
3.94728
4.99184
6.27288
7.82575
9.68409
11.8768
14.4245
17.3351
20.5998
24.1887
28.0481
32.0981
36.2335
40.3263
44.2313
47.7942
50.8621
53.294
54.9728
55.8149
55.7774
54.8624
53.1162
50.6256
47.5102
43.9123
39.9856
35.8838
31.7509
27.7133
23.8741
20.3108
17.0752
14.1952
11.678
9.51448
7.68316
0.187106
0.23111
0.287118
0.358461
0.449346
0.565055
0.712163
0.898773
1.13476
1.43199
1.80452
2.26867
2.843
3.54806
4.40591
5.43924
6.67018
8.11866
9.80037
11.7243
13.8904
16.2866
18.8871
21.6503
24.5183
27.4179
30.2624
32.9554
35.3965
37.487
39.1372
40.2729
40.8416
40.8163
40.1983
39.0167
37.3262
35.2024
32.7362
30.0265
27.1737
24.2736
21.4118
18.6604
16.0758
13.6982
11.5523
9.64895
7.98742
6.558
0.221235
0.267556
0.325264
0.397175
0.486755
0.598237
0.736744
0.908413
1.12051
1.3815
1.70112
2.09029
2.56103
3.12616
3.79887
4.59208
5.51762
6.58517
7.80103
9.16676
10.6778
12.3222
14.0797
15.9207
17.8069
19.6916
21.521
23.2373
24.7809
26.0943
27.1259
27.8334
28.1869
28.1712
27.787
27.0508
25.9936
24.6586
23.0981
21.37
19.5336
17.6469
15.7628
13.9275
12.1786
10.5447
9.04561
7.69247
6.48928
5.43403
0.267887
0.316258
0.375063
0.446526
0.533301
0.63852
0.765854
0.919549
1.10445
1.32602
1.59026
1.90367
2.27306
2.70535
3.20724
3.78478
4.44292
5.1849
6.01162
6.921
7.90733
8.9608
10.0671
11.2074
12.3585
13.4932
14.5815
15.5919
16.4925
17.2533
17.8474
18.2532
18.4554
18.4464
18.2266
17.8042
17.1951
16.4214
15.5103
14.4921
13.3986
12.2614
11.1103
9.97203
8.8695
7.82122
6.84107
5.93851
5.11891
4.38409
0.331186
0.380673
0.439226
0.508433
0.590119
0.686354
0.799471
0.932053
1.08692
1.26711
1.47579
1.7162
1.99152
2.30473
2.65843
3.05461
3.49438
3.97779
4.50346
5.06841
5.66781
6.29485
6.94068
7.59448
8.24365
8.87412
9.47086
10.0184
10.5017
10.9067
11.2209
11.4345
11.5407
11.536
11.4205
11.1981
10.8758
10.4637
9.97445
9.42212
8.82194
8.18931
7.53923
6.88563
6.24099
5.61598
5.01925
4.45746
3.93527
3.45552
0.41664
0.465242
0.521084
0.585132
0.658444
0.742164
0.837514
0.945776
1.06827
1.20631
1.36118
1.53407
1.72599
1.93775
2.16982
2.42227
2.69466
2.98598
3.29453
3.61791
3.95292
4.29559
4.64119
4.9843
5.31896
5.63877
5.93714
6.20751
6.4436
6.63966
6.79077
6.89301
6.94368
6.94144
6.88633
6.77984
6.62477
6.42512
6.18591
5.91292
5.61248
5.29116
4.95555
4.612
4.26645
3.92426
3.59009
3.26785
2.96066
2.67089
0.53143
0.5755
0.624585
0.679117
0.739538
0.806295
0.879825
0.960545
1.04884
1.14503
1.24938
1.36204
1.48305
1.6123
1.74951
1.89422
2.04573
2.20312
2.36524
2.53068
2.69779
2.86469
3.02931
3.1894
3.34262
3.48656
3.61881
3.73706
3.83915
3.92315
3.98742
4.03067
4.05205
4.0511
4.02785
3.98278
3.91679
3.8312
3.72767
3.60814
3.47481
3.33
3.1761
3.01554
2.85064
2.68365
2.51661
2.35139
2.18962
2.03268
0.684639
0.71812
0.754222
0.793022
0.834582
0.878946
0.926141
0.976165
1.02899
1.08455
1.14274
1.20342
1.2664
1.33144
1.39823
1.46643
1.53564
1.60539
1.67518
1.74445
1.81259
1.87899
1.94297
2.00387
2.06102
2.11376
2.16145
2.2035
2.23938
2.26862
2.29082
2.30568
2.313
2.31268
2.30471
2.28922
2.26642
2.2366
2.20018
2.15763
2.10949
2.05635
1.99886
1.93767
1.87346
1.80689
1.73863
1.66929
1.59949
1.52976
0.887303
0.900774
0.914827
0.929425
0.94453
0.960096
0.976075
0.992415
1.00906
1.02595
1.04301
1.06018
1.07739
1.09455
1.11159
1.12842
1.14497
1.16113
1.17683
1.19197
1.20648
1.22025
1.23322
1.24529
1.25639
1.26645
1.2754
1.28318
1.28973
1.29502
1.29901
1.30166
1.30297
1.30291
1.30149
1.29873
1.29463
1.28923
1.28257
1.27468
1.26564
1.25549
1.2443
1.23216
1.21912
1.20528
1.19072
1.17552
1.15978
1.14358
1.15213
1.13175
1.11119
1.09055
1.06992
1.04941
1.0291
1.00906
0.989376
0.970118
0.95135
0.933128
0.915505
0.898528
0.882238
0.866672
0.851862
0.837834
0.824614
0.812219
0.800668
0.789974
0.780149
0.771201
0.763137
0.755964
0.749686
0.744305
0.739825
0.736247
0.733572
0.731801
0.730935
0.730973
0.731916
0.733763
0.736515
0.740169
0.744725
0.750182
0.756536
0.763784
0.771923
0.780945
0.790845
0.801611
0.813234
0.825699
0.838989
0.853083
1.49266
1.41918
1.34746
1.27786
1.21068
1.14616
1.0845
1.02583
0.970239
0.917767
0.868427
0.822197
0.77903
0.738857
0.701593
0.667141
0.635395
0.606243
0.579573
0.55527
0.533223
0.513323
0.495468
0.479562
0.465514
0.453243
0.442677
0.433749
0.426405
0.420597
0.416289
0.413453
0.41207
0.412131
0.413636
0.416596
0.421029
0.426965
0.434441
0.443505
0.454213
0.466631
0.480833
0.4969
0.514924
0.535001
0.557235
0.581734
0.608609
0.637975
1.92166
1.76981
1.6263
1.49155
1.36582
1.24915
1.14144
1.04247
0.951927
0.869417
0.794498
0.726695
0.665515
0.610467
0.561064
0.516836
0.477336
0.442144
0.410867
0.383146
0.35865
0.337082
0.318173
0.301686
0.287409
0.275158
0.264774
0.256122
0.249088
0.24358
0.239524
0.236869
0.235578
0.235635
0.23704
0.239812
0.243988
0.249622
0.256789
0.265583
0.276119
0.288534
0.302991
0.319674
0.338798
0.360603
0.385359
0.413368
0.444961
0.480502
2.4486
2.18729
1.94784
1.73005
1.53329
1.35661
1.19885
1.05868
0.934685
0.825434
0.729505
0.645527
0.572204
0.508328
0.45279
0.404583
0.362802
0.32664
0.295384
0.268408
0.245164
0.225179
0.208044
0.193407
0.18097
0.170479
0.161721
0.15452
0.148732
0.144241
0.140959
0.138821
0.137785
0.13783
0.138958
0.141191
0.144573
0.149169
0.155072
0.162398
0.171295
0.181942
0.194555
0.209391
0.226753
0.246996
0.270536
0.297852
0.329497
0.366105
3.07628
2.67009
2.30856
1.9894
1.70972
1.46626
1.25556
1.07418
0.918735
0.78605
0.673168
0.577397
0.496326
0.427819
0.370006
0.321263
0.280195
0.245606
0.216484
0.19197
0.171345
0.154004
0.139444
0.127246
0.117063
0.108611
0.101656
0.0960089
0.0915178
0.0880639
0.0855568
0.0839315
0.0831462
0.0831807
0.0840359
0.0857338
0.088318
0.0918557
0.0964396
0.102191
0.109265
0.117853
0.128194
0.140578
0.155355
0.172953
0.193882
0.218755
0.248305
0.283399
3.79698
3.20936
2.70022
2.26296
1.89041
1.57522
1.31024
1.08867
0.904264
0.751393
0.625071
0.52095
0.435293
0.364915
0.307136
0.259712
0.220782
0.18881
0.162534
0.140921
0.123131
0.10848
0.0964134
0.0864838
0.0783299
0.0716614
0.0662462
0.0618997
0.0584771
0.0558661
0.0539828
0.0527674
0.0521817
0.0522074
0.0528454
0.0541154
0.0560576
0.0587335
0.0622295
0.0666602
0.0721736
0.0789578
0.0872497
0.0973448
0.109611
0.124504
0.142589
0.164561
0.191276
0.223783
4.58894
3.78725
3.10923
2.54119
2.0693
1.68021
1.36149
1.10188
0.891435
0.721509
0.584727
0.474881
0.386805
0.316248
0.259739
0.214465
0.178162
0.149015
0.125576
0.106694
0.0914556
0.0791369
0.0691665
0.0610929
0.0545603
0.0492888
0.0450587
0.0416986
0.0390761
0.03709
0.0356656
0.0347501
0.0343099
0.0343292
0.0348087
0.0357657
0.0372352
0.0392718
0.0419524
0.0453804
0.0496913
0.0550601
0.0617112
0.0699301
0.08008
0.0926214
0.108137
0.127366
0.151239
0.18093
5.4144
4.37632
3.51671
2.81196
2.23929
1.77758
1.40787
1.11355
0.880382
0.696389
0.551636
0.437999
0.348906
0.279093
0.224376
0.181453
0.147734
0.121191
0.100249
0.0836819
0.0705399
0.0600873
0.0517547
0.0451017
0.0397875
0.035549
0.032183
0.0295336
0.0274816
0.0259376
0.0248356
0.0241299
0.0237913
0.0238062
0.024175
0.0249129
0.0260502
0.0276343
0.0297329
0.0324379
0.0358709
0.0401918
0.0456079
0.0523885
0.0608816
0.0715373
0.0849377
0.101834
0.123198
0.15028
6.22043
4.94064
3.8995
3.06127
2.39263
1.86361
1.448
1.12343
0.871215
0.67599
0.525323
0.409276
0.31999
0.25131
0.19845
0.157712
0.126253
0.101898
0.0829864
0.0682516
0.0567309
0.047692
0.0405775
0.0349638
0.0305281
0.0270247
0.0242667
0.0221123
0.0204546
0.0192139
0.0183321
0.017769
0.0174994
0.0175112
0.017805
0.0183938
0.0193042
0.0205776
0.0222739
0.0244747
0.0272896
0.0308639
0.0353887
0.0411155
0.0483746
0.0575996
0.0693607
0.0844076
0.103726
0.12861
6.94339
5.43897
4.23214
3.27438
2.52154
1.93472
1.4806
1.13132
0.86402
0.660253
0.50537
0.387862
0.298792
0.231276
0.180054
0.141128
0.111475
0.088819
0.0714467
0.0580739
0.0477374
0.0397145
0.0334634
0.0285768
0.0247485
0.0217484
0.0194028
0.0175816
0.0161875
0.0151485
0.0144125
0.0139436
0.0137194
0.0137292
0.0139735
0.0144639
0.0152239
0.0162907
0.0177178
0.0195791
0.0219745
0.0250372
0.0289451
0.0339339
0.0403174
0.0485126
0.0590749
0.0727445
0.0905084
0.113683
7.5171
5.82976
4.48982
3.43743
2.61892
1.98775
1.5046
1.13706
0.858861
0.649119
0.491435
0.373101
0.284364
0.217811
0.167841
0.130249
0.101893
0.0804316
0.0641254
0.0516823
0.0421436
0.0347976
0.0291154
0.0247034
0.0212684
0.0185914
0.0165089
0.0148991
0.0136714
0.0127591
0.0121144
0.0117045
0.0115086
0.0115172
0.0117306
0.0121595
0.0128253
0.0137621
0.0150193
0.0166652
0.0187926
0.0215267
0.0250349
0.0295417
0.0353476
0.0428563
0.05261
0.0653384
0.0820248
0.103994
7.88339
6.07728
4.65172
3.53901
2.67907
2.02022
1.51917
1.14051
0.855785
0.642536
0.483269
0.364525
0.276054
0.21012
0.160922
0.124135
0.0965491
0.0757896
0.0601025
0.0481942
0.0391106
0.0321477
0.0267853
0.0226385
0.0194219
0.0169235
0.0149859
0.0134919
0.012355
0.0115118
0.0109168
0.0105388
0.0103583
0.0103662
0.0105629
0.0109583
0.0115729
0.0124389
0.0136033
0.015131
0.0171111
0.0196634
0.0229495
0.0271868
0.0326679
0.0397877
0.0490798
0.0612664
0.0773266
0.0985877
8.00266
6.15756
4.70401
3.57169
2.69834
2.03058
1.5238
1.1416
0.854816
0.640473
0.48072
0.361859
0.273482
0.20775
0.158798
0.122266
0.0949216
0.0743809
0.058886
0.047143
0.0381994
0.031354
0.0260894
0.0220234
0.0188731
0.0164289
0.014535
0.0130759
0.0119664
0.011144
0.010564
0.0101956
0.0100197
0.0100274
0.0102191
0.0106045
0.0112036
0.0120484
0.0131847
0.0146768
0.0166123
0.0191095
0.0223281
0.0264833
0.0318651
0.0388656
0.0480156
0.0600348
0.0759005
0.0969405
7.8616
6.0626
4.64214
3.53302
2.67554
2.01831
1.51832
1.14031
0.855963
0.642918
0.483741
0.365018
0.276531
0.21056
0.161316
0.124483
0.0968522
0.0760521
0.0603295
0.0483905
0.0392809
0.0322962
0.0269156
0.0227538
0.0195248
0.0170163
0.0150705
0.01357
0.012428
0.0115809
0.0109831
0.0106033
0.010422
0.0104299
0.0106275
0.0110248
0.0116423
0.0125123
0.0136819
0.0152163
0.0172046
0.0197672
0.0230659
0.0273185
0.0328181
0.0399601
0.0492785
0.0614962
0.0775924
0.0988943
7.47592
5.80184
4.4715
3.42589
2.61207
1.98403
1.50293
1.13666
0.859217
0.649883
0.492387
0.374103
0.28534
0.218717
0.168658
0.130973
0.102528
0.0809854
0.0646069
0.0521009
0.0425086
0.0351172
0.0293971
0.0249536
0.0214925
0.0187942
0.0166944
0.0150707
0.0138321
0.0129115
0.0122609
0.0118471
0.0116494
0.011658
0.0118735
0.0123063
0.0129783
0.0139236
0.015192
0.016852
0.0189971
0.0217529
0.0252875
0.0298263
0.0356708
0.0432255
0.0530335
0.0658256
0.0825852
0.104637
6.88716
5.40046
4.2066
3.25813
2.51178
1.92937
1.47817
1.13074
0.86455
0.661404
0.506819
0.389407
0.30031
0.232701
0.181354
0.142292
0.112506
0.0897258
0.0722421
0.0587715
0.0483506
0.0402557
0.0339438
0.0290062
0.0251356
0.0221005
0.0197264
0.0178823
0.01647
0.0154171
0.0146711
0.0141958
0.0139685
0.0139785
0.0142262
0.0147233
0.0154936
0.0165746
0.0180202
0.0199049
0.0223293
0.0254276
0.0293785
0.0344191
0.0408642
0.0491324
0.0597802
0.0735488
0.0914253
0.114725
6.1546
4.89491
3.86873
3.04139
2.38051
1.85687
1.44488
1.12267
0.871914
0.677533
0.527295
0.41141
0.32212
0.253339
0.200327
0.159416
0.127783
0.103262
0.0841976
0.0693266
0.0576865
0.0485443
0.0413416
0.035653
0.0311545
0.0275988
0.0247977
0.0226084
0.020923
0.019661
0.0187638
0.0181908
0.0179164
0.0179284
0.0182274
0.0188267
0.0197529
0.0210481
0.0227727
0.025009
0.0278678
0.0314951
0.0360838
0.0418865
0.049235
0.0585646
0.0704465
0.085631
0.105103
0.130155
)
;

boundaryField
{
    left
    {
        type            zeroGradient;
    }
    right
    {
        type            zeroGradient;
    }
    bottom
    {
        type            zeroGradient;
    }
    top
    {
        type            zeroGradient;
    }
    frontAndBack
    {
        type            empty;
    }
}


// ************************************************************************* //
