/*--------------------------------*- C++ -*----------------------------------*\
  =========                 |
  \\      /  F ield         | OpenFOAM: The Open Source CFD Toolbox
   \\    /   O peration     | Website:  https://openfoam.org
    \\  /    A nd           | Version:  8
     \\/     M anipulation  |
\*---------------------------------------------------------------------------*/
FoamFile
{
    version     2.0;
    format      ascii;
    class       volScalarField;
    location    "1";
    object      u;
}
// * * * * * * * * * * * * * * * * * * * * * * * * * * * * * * * * * * * * * //

dimensions      [0 0 0 0 0 0 0];

internalField   nonuniform List<scalar> 
2500
(
0.92093
0.92258
0.924549
0.926863
0.929154
0.931095
0.932597
0.933771
0.934815
0.935938
0.93733
0.939138
0.941463
0.944353
0.947799
0.95173
0.956022
0.960501
0.964969
0.969227
0.973108
0.976496
0.97933
0.981599
0.983321
0.984527
0.985252
0.985528
0.985385
0.984862
0.984005
0.982873
0.981536
0.980068
0.978542
0.977024
0.975574
0.974237
0.973047
0.972023
0.971173
0.970492
0.969966
0.969574
0.969289
0.969087
0.968945
0.968855
0.968834
0.968952
0.759227
0.760679
0.762935
0.766453
0.770872
0.775568
0.780157
0.784617
0.789184
0.794223
0.80012
0.807216
0.815758
0.825868
0.837511
0.850481
0.8644
0.878748
0.89292
0.906322
0.918454
0.928984
0.937753
0.944746
0.95004
0.953746
0.955977
0.956835
0.956417
0.954834
0.952227
0.948779
0.944704
0.940229
0.935583
0.930972
0.926574
0.922533
0.918948
0.915881
0.913353
0.91135
0.909832
0.908734
0.907981
0.907496
0.907211
0.907088
0.907132
0.907393
0.595509
0.595312
0.595696
0.597961
0.602238
0.608005
0.614734
0.622218
0.630585
0.640192
0.651488
0.664908
0.680784
0.699267
0.720268
0.743417
0.768054
0.793281
0.818062
0.841384
0.862417
0.880616
0.895738
0.907783
0.916901
0.923296
0.92717
0.928697
0.92804
0.925378
0.920949
0.915061
0.908084
0.900421
0.89247
0.884599
0.877119
0.870277
0.864246
0.859127
0.854957
0.85171
0.849313
0.847658
0.846614
0.846044
0.845828
0.845875
0.84614
0.846601
0.432527
0.430158
0.427564
0.426916
0.429061
0.433918
0.441111
0.450398
0.461824
0.475689
0.492434
0.51252
0.536297
0.563898
0.595129
0.629411
0.665756
0.702839
0.739159
0.773267
0.803985
0.83055
0.85263
0.870239
0.883596
0.893005
0.898761
0.901118
0.900304
0.896568
0.890236
0.881746
0.871637
0.860511
0.848972
0.837577
0.826796
0.816998
0.808435
0.801254
0.795499
0.79113
0.788038
0.786061
0.785004
0.784661
0.784836
0.785359
0.786092
0.786887
0.273326
0.268753
0.262773
0.258222
0.256664
0.258669
0.264298
0.273525
0.286465
0.303426
0.324845
0.351177
0.382754
0.419637
0.461483
0.507449
0.556174
0.605877
0.654566
0.700333
0.74163
0.777442
0.807307
0.831211
0.849423
0.862332
0.870326
0.873749
0.872904
0.868116
0.859803
0.848535
0.835032
0.820119
0.804643
0.789392
0.775035
0.762084
0.75089
0.741648
0.734411
0.729117
0.72561
0.723667
0.723015
0.723361
0.724402
0.725846
0.727395
0.728707
0.120715
0.114184
0.104889
0.0960534
0.0898252
0.0874541
0.089616
0.0967339
0.109198
0.127462
0.152037
0.183399
0.221856
0.267379
0.319449
0.376942
0.438121
0.500748
0.562347
0.620538
0.673356
0.719457
0.758159
0.789338
0.813248
0.830323
0.841038
0.845828
0.845096
0.839267
0.828879
0.81465
0.797495
0.778482
0.758733
0.739305
0.721105
0.704831
0.69095
0.679714
0.671188
0.66528
0.661782
0.66039
0.660739
0.662412
0.664956
0.667886
0.670671
0.672702
-0.0230246
-0.0311104
-0.0433008
-0.0562216
-0.0673336
-0.0748118
-0.0773574
-0.0739968
-0.0639173
-0.0463746
-0.0206781
0.0137451
0.0572257
0.109687
0.170478
0.238263
0.310999
0.386073
0.46057
0.531632
0.596809
0.65431
0.703085
0.742758
0.773445
0.79555
0.809594
0.816109
0.815629
0.80873
0.796128
0.778741
0.757723
0.73441
0.710213
0.686483
0.664386
0.644822
0.628396
0.615426
0.605985
0.59995
0.597044
0.596873
0.598942
0.602672
0.607399
0.612376
0.616775
0.619681
-0.156265
-0.165423
-0.179823
-0.196104
-0.211507
-0.223804
-0.231213
-0.232282
-0.225788
-0.210663
-0.185979
-0.15099
-0.105245
-0.0487401
0.0179093
0.0933413
0.175414
0.261308
0.347781
0.43152
0.50952
0.579391
0.63952
0.689063
0.727815
0.756009
0.774135
0.782807
0.782723
0.774696
0.759717
0.739022
0.714087
0.686577
0.658213
0.630621
0.605192
0.582988
0.564707
0.550701
0.541032
0.535525
0.533829
0.53545
0.539759
0.545998
0.553275
0.560566
0.566731
0.57054
-0.278052
-0.287765
-0.3035
-0.322006
-0.340417
-0.356281
-0.367541
-0.372485
-0.369665
-0.357828
-0.335872
-0.302868
-0.25814
-0.201419
-0.133018
-0.0540067
0.0336961
0.127356
0.223608
0.318783
0.409296
0.492022
0.564556
0.625325
0.673539
0.709049
0.732174
0.743562
0.74412
0.735001
0.717638
0.693745
0.66528
0.634328
0.60294
0.572957
0.545869
0.522739
0.504199
0.490502
0.481605
0.477252
0.477033
0.48041
0.48671
0.495098
0.50455
0.513835
0.521538
0.526104
-0.388044
-0.397797
-0.413901
-0.43326
-0.452989
-0.470562
-0.483872
-0.491211
-0.491179
-0.482568
-0.464275
-0.435262
-0.394606
-0.34163
-0.276103
-0.198468
-0.110032
-0.0130578
0.0893073
0.19327
0.294765
0.389881
0.47524
0.548258
0.607245
0.651379
0.680604
0.695514
0.697251
0.687455
0.668195
0.641881
0.611108
0.578454
0.54625
0.516395
0.490255
0.46865
0.451929
0.440089
0.432904
0.430026
0.43104
0.435477
0.442772
0.452195
0.462769
0.473209
0.481896
0.486935
-0.486423
-0.495738
-0.511254
-0.530077
-0.549385
-0.566723
-0.580138
-0.588152
-0.589629
-0.583599
-0.569111
-0.545146
-0.510618
-0.464466
-0.405847
-0.334391
-0.25049
-0.155532
-0.0520063
0.056577
0.165969
0.271607
0.369092
0.454621
0.525294
0.579287
0.615901
0.635528
0.639561
0.63025
0.610495
0.583565
0.552754
0.521048
0.490865
0.463912
0.441198
0.423135
0.409716
0.400679
0.395657
0.394264
0.396142
0.400948
0.408299
0.417674
0.428291
0.438963
0.448
0.453203
-0.573789
-0.582262
-0.596346
-0.613414
-0.630824
-0.646341
-0.658321
-0.665644
-0.667524
-0.663293
-0.652225
-0.633424
-0.605787
-0.568042
-0.518886
-0.457209
-0.382413
-0.294756
-0.19565
-0.0878088
0.0248374
0.137459
0.244829
0.341908
0.424392
0.48916
0.53458
0.560645
0.568927
0.562331
0.544651
0.519995
0.492213
0.464455
0.438959
0.41705
0.399303
0.385765
0.376179
0.370158
0.367304
0.367271
0.369787
0.374634
0.381595
0.390358
0.400367
0.410638
0.419543
0.424667
-0.651049
-0.65838
-0.670379
-0.684776
-0.69925
-0.711926
-0.721552
-0.727387
-0.728965
-0.725882
-0.717626
-0.703478
-0.682447
-0.653264
-0.614439
-0.564399
-0.501753
-0.425647
-0.336201
-0.234883
-0.124713
-0.0101833
0.103139
0.209256
0.30251
0.378347
0.433961
0.468698
0.484107
0.483575
0.47159
0.45283
0.431382
0.410287
0.391453
0.375824
0.363667
0.354844
0.34903
0.345854
0.344986
0.34617
0.349232
0.354058
0.360557
0.368575
0.37776
0.38735
0.395865
0.400777
-0.719309
-0.725321
-0.734821
-0.745985
-0.756952
-0.766308
-0.773213
-0.777244
-0.778173
-0.775776
-0.769713
-0.759443
-0.744163
-0.722766
-0.693828
-0.655651
-0.606407
-0.544421
-0.468605
-0.378989
-0.277206
-0.166738
-0.0527802
0.0583167
0.159929
0.246207
0.313081
0.35898
0.385046
0.394684
0.392568
0.38347
0.371365
0.359032
0.348095
0.339297
0.332819
0.328544
0.326237
0.325648
0.326574
0.328871
0.332464
0.337327
0.343461
0.350825
0.359227
0.368102
0.376151
0.380808
-0.779768
-0.78441
-0.791249
-0.798959
-0.806244
-0.812202
-0.816375
-0.81858
-0.818733
-0.81672
-0.81232
-0.805148
-0.794607
-0.779825
-0.759606
-0.732392
-0.696286
-0.649197
-0.58917
-0.514931
-0.426538
-0.325949
-0.217238
-0.10629
1.73529e-05
0.0950043
0.173467
0.232703
0.272924
0.296846
0.308605
0.312518
0.312179
0.310102
0.307801
0.306053
0.305174
0.305234
0.306198
0.308002
0.310596
0.313964
0.318124
0.323131
0.329053
0.335936
0.343704
0.351958
0.359567
0.363975
-0.833619
-0.836961
-0.841211
-0.845538
-0.849252
-0.851978
-0.85359
-0.854079
-0.853441
-0.85162
-0.848473
-0.843743
-0.837014
-0.827663
-0.81478
-0.797091
-0.772882
-0.740016
-0.696103
-0.638927
-0.567126
-0.480946
-0.382798
-0.277302
-0.17072
-0.069841
0.0193796
0.0930409
0.149929
0.19132
0.22008
0.239567
0.252795
0.262063
0.268945
0.274442
0.279165
0.283483
0.287628
0.291759
0.296
0.300466
0.305274
0.31055
0.316427
0.323016
0.330331
0.338097
0.345332
0.349507
-0.881962
-0.884172
-0.886111
-0.887365
-0.887822
-0.887606
-0.886897
-0.885819
-0.884419
-0.882672
-0.880488
-0.877703
-0.874056
-0.869135
-0.862308
-0.85261
-0.838628
-0.818404
-0.789466
-0.749091
-0.694875
-0.625527
-0.541627
-0.446016
-0.343582
-0.24044
-0.142719
-0.0553303
0.0188553
0.0791665
0.126651
0.163304
0.191365
0.212885
0.229554
0.24268
0.253245
0.261978
0.269419
0.275974
0.28196
0.287631
0.293212
0.298904
0.304901
0.311372
0.318399
0.325805
0.332722
0.33666
-0.925733
-0.927054
-0.927122
-0.925809
-0.923473
-0.920685
-0.917914
-0.915422
-0.913306
-0.911569
-0.91016
-0.908986
-0.907899
-0.906656
-0.904842
-0.90176
-0.896284
-0.88671
-0.870683
-0.845318
-0.80762
-0.75518
-0.686987
-0.604025
-0.50941
-0.407966
-0.30535
-0.207007
-0.117248
-0.0387434
0.0275139
0.081877
0.125559
0.160179
0.187427
0.208867
0.225838
0.239436
0.250528
0.259791
0.267753
0.274829
0.281359
0.287635
0.293915
0.300422
0.307297
0.314432
0.321044
0.324702
-0.965647
-0.966372
-0.965126
-0.961914
-0.957391
-0.952484
-0.947945
-0.944202
-0.941436
-0.939691
-0.938955
-0.939191
-0.94033
-0.94224
-0.944649
-0.947035
-0.948474
-0.947468
-0.941833
-0.928732
-0.904964
-0.867526
-0.814327
-0.744844
-0.66047
-0.564449
-0.46141
-0.356635
-0.255234
-0.161426
-0.0780797
-0.00658601
0.0529667
0.101439
0.140241
0.170992
0.195276
0.214507
0.229874
0.242339
0.252663
0.261447
0.269171
0.276229
0.282954
0.289627
0.296438
0.303328
0.309582
0.312859
-1.00217
-1.00261
-1.00067
-0.996357
-0.990408
-0.983967
-0.978042
-0.973269
-0.969962
-0.968245
-0.968157
-0.969705
-0.972869
-0.977569
-0.98359
-0.990475
-0.997374
-1.00289
-1.00498
-1.00096
-0.987714
-0.962127
-0.921648
-0.864836
-0.791761
-0.704143
-0.605235
-0.499461
-0.391852
-0.287363
-0.190212
-0.103387
-0.0284585
0.034314
0.085666
0.126943
0.159752
0.185701
0.206251
0.222644
0.235897
0.246821
0.256062
0.264139
0.271476
0.278416
0.285189
0.291778
0.297527
0.300259
-1.03549
-1.03595
-1.03396
-1.02942
-1.02296
-1.01577
-1.00901
-1.00356
-0.999925
-0.998348
-0.998951
-1.00178
-1.00684
-1.01404
-1.02312
-1.03358
-1.04453
-1.05456
-1.06172
-1.06355
-1.05722
-1.03992
-1.00917
-0.963213
-0.901339
-0.824036
-0.733106
-0.631624
-0.523733
-0.414203
-0.307823
-0.208736
-0.119941
-0.0430658
0.0215505
0.0745735
0.117301
0.151319
0.178239
0.199541
0.216494
0.230143
0.241328
0.250715
0.258836
0.266102
0.272789
0.278914
0.283906
0.285862
-1.06557
-1.06631
-1.06485
-1.06095
-1.05503
-1.04808
-1.04133
-1.0358
-1.03222
-1.03102
-1.03244
-1.03657
-1.04339
-1.05273
-1.06424
-1.07726
-1.09075
-1.10327
-1.11295
-1.11762
-1.11492
-1.1026
-1.07861
-1.04137
-0.989812
-0.923594
-0.843232
-0.750302
-0.64755
-0.538792
-0.428543
-0.321421
-0.221486
-0.131724
-0.0538083
0.0118514
0.0658485
0.109425
0.144133
0.171573
0.193225
0.210365
0.224044
0.235098
0.244183
0.251792
0.25825
0.263631
0.267509
0.268413
-1.0921
-1.09334
-1.09289
-1.09042
-1.08607
-1.08055
-1.07492
-1.07025
-1.06742
-1.06706
-1.06952
-1.07497
-1.08333
-1.09433
-1.10742
-1.12175
-1.13613
-1.14909
-1.15893
-1.16386
-1.16214
-1.15216
-1.13252
-1.10196
-1.05943
-1.00408
-0.935456
-0.853809
-0.760369
-0.657557
-0.548925
-0.438792
-0.331647
-0.231494
-0.141332
-0.0628912
0.00333823
0.05787
0.101884
0.136891
0.164462
0.186056
0.202926
0.216089
0.226336
0.234258
0.240257
0.244514
0.246856
0.246429
-1.11464
-1.1165
-1.1174
-1.11692
-1.11505
-1.11215
-1.10897
-1.10642
-1.1054
-1.10662
-1.11055
-1.11736
-1.12694
-1.13888
-1.15244
-1.16659
-1.18008
-1.19151
-1.19948
-1.2027
-1.20007
-1.19066
-1.17363
-1.14813
-1.11321
-1.06779
-1.01084
-0.941611
-0.860049
-0.767114
-0.665004
-0.557092
-0.447559
-0.34081
-0.240825
-0.150632
-0.0720326
-0.00560423
0.0490839
0.0931402
0.128013
0.155214
0.176135
0.191955
0.203605
0.211799
0.217068
0.219795
0.220204
0.218246
-1.13264
-1.13516
-1.13753
-1.13938
-1.14057
-1.14122
-1.14174
-1.14272
-1.14485
-1.14873
-1.15477
-1.16311
-1.17356
-1.18557
-1.19829
-1.21066
-1.2215
-1.22969
-1.23426
-1.2345
-1.22989
-1.22005
-1.20458
-1.18292
-1.15425
-1.11745
-1.07121
-1.01422
-0.945519
-0.864843
-0.773004
-0.672065
-0.565274
-0.456716
-0.350735
-0.251301
-0.161483
-0.0831531
-0.0169764
0.0373837
0.0809343
0.115012
0.141006
0.160177
0.173585
0.182098
0.18646
0.187389
0.185662
0.182153
-1.14552
-1.14866
-1.15245
-1.15663
-1.16106
-1.16572
-1.17075
-1.17641
-1.18298
-1.19073
-1.19977
-1.21003
-1.22112
-1.23243
-1.24312
-1.25227
-1.25904
-1.26278
-1.26307
-1.25976
-1.25279
-1.24215
-1.22769
-1.20901
-1.18539
-1.15577
-1.1188
-1.07297
-1.01681
-0.949253
-0.869964
-0.779673
-0.680353
-0.575164
-0.468108
-0.363481
-0.265235
-0.176462
-0.0990887
-0.0338699
0.0194019
0.0615664
0.0937652
0.117194
0.132978
0.142163
0.145799
0.14507
0.141416
0.136624
-1.15279
-1.15642
-1.16143
-1.16768
-1.17511
-1.18369
-1.19339
-1.20419
-1.21597
-1.22851
-1.24144
-1.25421
-1.26612
-1.27642
-1.28437
-1.28945
-1.29137
-1.29015
-1.28597
-1.27916
-1.26998
-1.25859
-1.2449
-1.22859
-1.209
-1.18519
-1.1559
-1.11965
-1.07486
-1.02004
-0.954101
-0.876702
-0.78854
-0.691539
-0.588789
-0.484216
-0.382034
-0.286131
-0.199553
-0.124246
-0.0610662
-0.0100007
0.0295291
0.058409
0.0776847
0.0885388
0.0923589
0.0908415
0.0860829
0.0806347
-1.15413
-1.15806
-1.16394
-1.17182
-1.18173
-1.19367
-1.20757
-1.22319
-1.24013
-1.25771
-1.275
-1.29088
-1.30416
-1.3138
-1.31919
-1.32026
-1.31744
-1.31152
-1.30332
-1.29354
-1.28261
-1.27071
-1.25775
-1.24337
-1.22698
-1.20775
-1.18461
-1.15626
-1.12119
-1.07787
-1.02486
-0.961123
-0.886355
-0.801278
-0.707804
-0.608963
-0.508557
-0.410618
-0.318821
-0.236047
-0.164206
-0.104294
-0.0565819
-0.020804
0.00374002
0.0181713
0.0240748
0.0235398
0.0191609
0.0140008
-1.14948
-1.15346
-1.15981
-1.16874
-1.18044
-1.19495
-1.21218
-1.23179
-1.25314
-1.27523
-1.29672
-1.31597
-1.33126
-1.34119
-1.34506
-1.34316
-1.33663
-1.32701
-1.31572
-1.30378
-1.2917
-1.27963
-1.26739
-1.25461
-1.24075
-1.22509
-1.20676
-1.18469
-1.1576
-1.1241
-1.08271
-1.03212
-0.971417
-0.900387
-0.819824
-0.731633
-0.638716
-0.544597
-0.452905
-0.366914
-0.289254
-0.221838
-0.165901
-0.122047
-0.0902473
-0.069792
-0.0592421
-0.0564329
-0.0585639
-0.0623538
-1.13906
-1.14282
-1.1492
-1.15862
-1.17139
-1.18764
-1.20725
-1.2298
-1.25449
-1.28013
-1.30511
-1.3275
-1.34522
-1.35648
-1.36038
-1.35728
-1.34876
-1.33697
-1.32385
-1.31069
-1.29809
-1.28615
-1.27466
-1.26322
-1.25135
-1.23845
-1.22382
-1.20661
-1.18584
-1.16032
-1.12878
-1.08989
-1.04247
-0.985732
-0.919579
-0.844821
-0.763253
-0.677489
-0.590625
-0.505836
-0.426076
-0.353882
-0.291284
-0.239718
-0.199941
-0.171918
-0.154733
-0.146571
-0.144824
-0.146324
-1.12348
-1.12674
-1.13273
-1.1421
-1.15531
-1.17257
-1.19371
-1.21823
-1.24522
-1.27336
-1.30095
-1.32592
-1.34607
-1.35945
-1.36487
-1.36253
-1.35405
-1.34187
-1.32831
-1.3149
-1.30237
-1.29085
-1.28012
-1.26982
-1.25952
-1.24873
-1.23689
-1.22338
-1.20743
-1.18814
-1.16447
-1.1352
-1.09912
-1.05508
-1.00231
-0.940687
-0.87101
-0.795041
-0.715327
-0.634834
-0.556581
-0.483359
-0.417561
-0.361066
-0.315151
-0.280385
-0.256522
-0.242422
-0.236084
-0.234839
-1.10373
-1.10622
-1.11143
-1.1203
-1.13346
-1.15114
-1.17316
-1.19891
-1.22735
-1.25711
-1.28645
-1.31335
-1.33568
-1.35147
-1.35943
-1.35947
-1.35291
-1.3421
-1.32946
-1.31675
-1.30485
-1.294
-1.28407
-1.27476
-1.2657
-1.25651
-1.24676
-1.23596
-1.22357
-1.20889
-1.19106
-1.16902
-1.14149
-1.10708
-1.06453
-1.01312
-0.953121
-0.885904
-0.813743
-0.739391
-0.665686
-0.595276
-0.530469
-0.473154
-0.424745
-0.386126
-0.357571
-0.338655
-0.3282
-0.324345
-1.08121
-1.08268
-1.08678
-1.09478
-1.1075
-1.12521
-1.14764
-1.17405
-1.20334
-1.23404
-1.26445
-1.29267
-1.31675
-1.33489
-1.3458
-1.34916
-1.34588
-1.33788
-1.3274
-1.31627
-1.30554
-1.29565
-1.28658
-1.27815
-1.27009
-1.2621
-1.25385
-1.24497
-1.23503
-1.22346
-1.2095
-1.19212
-1.16995
-1.14145
-1.1052
-1.06044
-1.00748
-0.947652
-0.88301
-0.815957
-0.748917
-0.684148
-0.623637
-0.569052
-0.521708
-0.48255
-0.452121
-0.430507
-0.41727
-0.411424
-1.0576
-1.0579
-1.06065
-1.06749
-1.07948
-1.09689
-1.11937
-1.14605
-1.17569
-1.20681
-1.23776
-1.26677
-1.29212
-1.31225
-1.32599
-1.33293
-1.33356
-1.32928
-1.32191
-1.31313
-1.30413
-1.2955
-1.28742
-1.27984
-1.2726
-1.26549
-1.25824
-1.25056
-1.24206
-1.2322
-1.22021
-1.20502
-1.18525
-1.15946
-1.12653
-1.08608
-1.03864
-0.985456
-0.92827
-0.869012
-0.80962
-0.751911
-0.697509
-0.647802
-0.603926
-0.56676
-0.536919
-0.514755
-0.500316
-0.493316
-1.03478
-1.03388
-1.03515
-1.04065
-1.05165
-1.06848
-1.09067
-1.11721
-1.14678
-1.17786
-1.20885
-1.23815
-1.26427
-1.28587
-1.30198
-1.31217
-1.31666
-1.31636
-1.31259
-1.30676
-1.29997
-1.29294
-1.28602
-1.27932
-1.27278
-1.26626
-1.25956
-1.2524
-1.24438
-1.23493
-1.22325
-1.20832
-1.18896
-1.16413
-1.13322
-1.09622
-1.05372
-1.00679
-0.956779
-0.905176
-0.853485
-0.803137
-0.755432
-0.711504
-0.672304
-0.638595
-0.610969
-0.58986
-0.575556
-0.568194
-1.01461
-1.01264
-1.0125
-1.01657
-1.02636
-1.04225
-1.06372
-1.08966
-1.11865
-1.14918
-1.17972
-1.20881
-1.23515
-1.25763
-1.27546
-1.28823
-1.29601
-1.29936
-1.29916
-1.29646
-1.29218
-1.28704
-1.28147
-1.27569
-1.26976
-1.26358
-1.257
-1.24973
-1.24136
-1.23133
-1.21891
-1.20329
-1.18369
-1.15951
-1.13051
-1.09685
-1.05906
-1.01797
-0.974595
-0.930085
-0.885598
-0.842256
-0.8011
-0.763047
-0.728882
-0.699251
-0.674674
-0.655572
-0.642296
-0.635166
-0.998607
-0.995897
-0.994627
-0.997346
-1.00573
-1.02028
-1.04048
-1.06519
-1.09298
-1.12236
-1.15188
-1.18022
-1.20622
-1.22897
-1.24779
-1.26233
-1.27256
-1.27881
-1.28167
-1.28183
-1.28001
-1.2768
-1.27265
-1.2678
-1.26237
-1.25633
-1.24954
-1.24174
-1.23258
-1.2216
-1.20828
-1.19209
-1.17258
-1.14945
-1.12265
-1.09237
-1.05903
-1.02327
-0.985869
-0.947707
-0.90969
-0.872705
-0.837584
-0.805072
-0.775811
-0.750335
-0.729079
-0.712403
-0.700629
-0.694096
-0.987732
-0.98475
-0.982854
-0.984489
-0.991381
-1.00415
-1.02243
-1.04515
-1.07099
-1.09851
-1.12637
-1.15338
-1.1785
-1.20091
-1.22004
-1.23553
-1.24733
-1.25559
-1.26068
-1.26307
-1.26327
-1.26174
-1.25884
-1.25482
-1.2498
-1.2438
-1.23673
-1.22841
-1.21861
-1.20701
-1.1933
-1.17718
-1.1584
-1.13682
-1.11246
-1.08549
-1.05628
-1.0253
-0.993179
-0.960597
-0.92827
-0.896908
-0.867179
-0.839687
-0.814953
-0.79341
-0.775408
-0.761228
-0.751119
-0.745357
-0.982221
-0.979463
-0.977532
-0.978511
-0.983978
-0.994649
-1.01036
-1.03032
-1.05337
-1.07828
-1.10383
-1.12892
-1.15262
-1.17415
-1.19297
-1.20872
-1.22128
-1.23069
-1.23717
-1.24104
-1.24265
-1.24234
-1.2404
-1.23704
-1.2324
-1.22653
-1.21941
-1.21095
-1.20101
-1.18942
-1.17601
-1.1606
-1.14306
-1.12335
-1.10151
-1.07772
-1.05226
-1.02554
-0.998047
-0.970329
-0.94296
-0.91651
-0.891519
-0.868475
-0.847796
-0.829827
-0.814835
-0.803022
-0.794553
-0.789606
-0.981597
-0.979447
-0.977975
-0.978739
-0.982995
-0.991449
-1.00418
-1.02072
-1.04029
-1.06189
-1.0845
-1.10715
-1.12894
-1.14913
-1.16714
-1.18258
-1.19525
-1.20511
-1.21229
-1.21698
-1.21943
-1.21991
-1.21866
-1.21586
-1.21165
-1.20612
-1.19928
-1.19112
-1.18156
-1.17053
-1.15793
-1.14366
-1.12767
-1.10996
-1.09061
-1.06978
-1.04772
-1.02478
-1.00134
-0.977858
-0.954796
-0.932617
-0.911756
-0.892604
-0.875497
-0.860697
-0.8484
-0.838733
-0.831779
-0.827612
-0.984829
-0.98347
-0.98269
-0.983504
-0.98679
-0.993141
-1.0028
-1.01565
-1.0313
-1.04912
-1.06833
-1.08811
-1.10761
-1.12607
-1.14288
-1.15757
-1.16987
-1.17969
-1.18705
-1.19208
-1.19498
-1.19597
-1.19523
-1.19294
-1.18925
-1.18423
-1.17795
-1.17041
-1.16159
-1.15145
-1.13994
-1.12704
-1.11273
-1.09705
-1.08009
-1.062
-1.04302
-1.02342
-1.00354
-0.983759
-0.964443
-0.945973
-0.928701
-0.912939
-0.898946
-0.886919
-0.876988
-0.869217
-0.863613
-0.860157
-0.990606
-0.989999
-0.989833
-0.990695
-0.993143
-0.997632
-1.00447
-1.01379
-1.02553
-1.03944
-1.05504
-1.07168
-1.08862
-1.10508
-1.12039
-1.13401
-1.1456
-1.15501
-1.1622
-1.16728
-1.17038
-1.17168
-1.17136
-1.16957
-1.16644
-1.16205
-1.15647
-1.14973
-1.14182
-1.13274
-1.12249
-1.11105
-1.09845
-1.08475
-1.07005
-1.05449
-1.03829
-1.02167
-1.00494
-0.988389
-0.97234
-0.957097
-0.942943
-0.930122
-0.918832
-0.909212
-0.901338
-0.895217
-0.890795
-0.887966
-0.997609
-0.997555
-0.997699
-0.998383
-0.999984
-1.00286
-1.00731
-1.01359
-1.02185
-1.0321
-1.04417
-1.05763
-1.07187
-1.08615
-1.09974
-1.11206
-1.1227
-1.13144
-1.13824
-1.14315
-1.14629
-1.1478
-1.14783
-1.1465
-1.14394
-1.14022
-1.1354
-1.12953
-1.12262
-1.11468
-1.10573
-1.09578
-1.08487
-1.07308
-1.0605
-1.04727
-1.03357
-1.01963
-1.00568
-0.991978
-0.978788
-0.966359
-0.954914
-0.944644
-0.935693
-0.928154
-0.922057
-0.917365
-0.913969
-0.911684
-1.00471
-1.00494
-1.00501
-1.00521
-1.00589
-1.00736
-1.00991
-1.01379
-1.01922
-1.02636
-1.03524
-1.04566
-1.0572
-1.06919
-1.08093
-1.09177
-1.10128
-1.10919
-1.11544
-1.12005
-1.1231
-1.12472
-1.12501
-1.12411
-1.12209
-1.11903
-1.11499
-1.11001
-1.10411
-1.09733
-1.08969
-1.08121
-1.07195
-1.06197
-1.05137
-1.04029
-1.02889
-1.01734
-1.00587
-0.994688
-0.984009
-0.974038
-0.96495
-0.956888
-0.949956
-0.944208
-0.939644
-0.936188
-0.933682
-0.931865
-1.01107
-1.01132
-1.01096
-1.01043
-1.01014
-1.01042
-1.0115
-1.01359
-1.01689
-1.02158
-1.02778
-1.03547
-1.04442
-1.05412
-1.06391
-1.07316
-1.08139
-1.08835
-1.09392
-1.09811
-1.10097
-1.10261
-1.10311
-1.10256
-1.10104
-1.09861
-1.09532
-1.09122
-1.08634
-1.0807
-1.07434
-1.06729
-1.05961
-1.05136
-1.04263
-1.03353
-1.02422
-1.01485
-1.00559
-0.996647
-0.988181
-0.98036
-0.973318
-0.967163
-0.961964
-0.957753
-0.954504
-0.952118
-0.950386
-0.94897
-1.01607
-1.01618
-1.01514
-1.01375
-1.01254
-1.01185
-1.01186
-1.01269
-1.01447
-1.01733
-1.02141
-1.02678
-1.03335
-1.0408
-1.0486
-1.05617
-1.06304
-1.06893
-1.07372
-1.07739
-1.07998
-1.08155
-1.08217
-1.08191
-1.08082
-1.07898
-1.07641
-1.07316
-1.06926
-1.06473
-1.05962
-1.05396
-1.04779
-1.04118
-1.0342
-1.02696
-1.01957
-1.01218
-1.00493
-0.997973
-0.991463
-0.985522
-0.980252
-0.97573
-0.972006
-0.969097
-0.966968
-0.965501
-0.964446
-0.963372
-1.01924
-1.01911
-1.01731
-1.01507
-1.01311
-1.01173
-1.01103
-1.01103
-1.01179
-1.01335
-1.01583
-1.0193
-1.02379
-1.02913
-1.03495
-1.04078
-1.0462
-1.05094
-1.05486
-1.05792
-1.06013
-1.06154
-1.0622
-1.06215
-1.06144
-1.06012
-1.05823
-1.05578
-1.05283
-1.04938
-1.04548
-1.04115
-1.03643
-1.03138
-1.02606
-1.02056
-1.01496
-1.00938
-1.00395
-0.998793
-0.994015
-0.989715
-0.985968
-0.98283
-0.980337
-0.978507
-0.977307
-0.976614
-0.976143
-0.975356
-1.01995
-1.01962
-1.01712
-1.01429
-1.0119
-1.01018
-1.00912
-1.00868
-1.0088
-1.00951
-1.01082
-1.01283
-1.01556
-1.01899
-1.02291
-1.02699
-1.0309
-1.0344
-1.03735
-1.03969
-1.04143
-1.04259
-1.04319
-1.04327
-1.04287
-1.04202
-1.04074
-1.03906
-1.03701
-1.0346
-1.03186
-1.02882
-1.0255
-1.02195
-1.01821
-1.01434
-1.01043
-1.00655
-1.00279
-0.999251
-0.996014
-0.993146
-0.990698
-0.98871
-0.987215
-0.986236
-0.985756
-0.98567
-0.985674
-0.985116
-1.0171
-1.01672
-1.01392
-1.01106
-1.00881
-1.00723
-1.00622
-1.00568
-1.00552
-1.00571
-1.00626
-1.00718
-1.00853
-1.01033
-1.0125
-1.01487
-1.01723
-1.01939
-1.02126
-1.02277
-1.02392
-1.02471
-1.02516
-1.02528
-1.02511
-1.02465
-1.02393
-1.02297
-1.02177
-1.02036
-1.01874
-1.01694
-1.01498
-1.01287
-1.01066
-1.00837
-1.00606
-1.00377
-1.00158
-0.999525
-0.997671
-0.996055
-0.994708
-0.993658
-0.992934
-0.992563
-0.992554
-0.99284
-0.993157
-0.99276
-1.00822
-1.00813
-1.00631
-1.00473
-1.00359
-1.00284
-1.00236
-1.00208
-1.00195
-1.00194
-1.00205
-1.00228
-1.00264
-1.00315
-1.0038
-1.00456
-1.00535
-1.0061
-1.00675
-1.00729
-1.0077
-1.008
-1.00817
-1.00824
-1.0082
-1.00806
-1.00784
-1.00753
-1.00714
-1.00668
-1.00615
-1.00556
-1.00491
-1.00422
-1.00349
-1.00273
-1.00197
-1.00122
-1.00051
-0.999842
-0.999251
-0.998745
-0.998339
-0.998044
-0.997877
-0.997858
-0.998005
-0.998309
-0.998643
-0.998373
)
;

boundaryField
{
    left
    {
        type            zeroGradient;
    }
    right
    {
        type            zeroGradient;
    }
    bottom
    {
        type            fixedValue;
        value           uniform 1;
    }
    top
    {
        type            fixedValue;
        value           uniform -1;
    }
    frontAndBack
    {
        type            empty;
    }
}


// ************************************************************************* //
