/*--------------------------------*- C++ -*----------------------------------*\
  =========                 |
  \\      /  F ield         | OpenFOAM: The Open Source CFD Toolbox
   \\    /   O peration     | Website:  https://openfoam.org
    \\  /    A nd           | Version:  8
     \\/     M anipulation  |
\*---------------------------------------------------------------------------*/
FoamFile
{
    version     2.0;
    format      ascii;
    class       volScalarField;
    location    "1";
    object      u;
}
// * * * * * * * * * * * * * * * * * * * * * * * * * * * * * * * * * * * * * //

dimensions      [0 0 0 0 0 0 0];

internalField   nonuniform List<scalar> 
2500
(
1.00284
0.996656
0.984525
0.969317
0.952638
0.935485
0.918507
0.902137
0.886657
0.872234
0.85893
0.846716
0.835472
0.825007
0.815075
0.8054
0.795694
0.785673
0.77507
0.763639
0.751164
0.737465
0.722397
0.705858
0.687786
0.668164
0.647013
0.62439
0.600388
0.575126
0.548744
0.521403
0.493278
0.464554
0.435429
0.406107
0.376797
0.347704
0.319012
0.290869
0.263356
0.236473
0.21013
0.184164
0.158352
0.132434
0.1061
0.0789344
0.0502586
0.0187342
0.995752
0.9847
0.971093
0.955945
0.940169
0.924426
0.909151
0.894611
0.880942
0.868182
0.856289
0.845162
0.834648
0.824561
0.814691
0.804816
0.794713
0.784163
0.772958
0.760905
0.747833
0.733594
0.718073
0.701189
0.682894
0.663176
0.64206
0.619599
0.595877
0.571
0.545094
0.518297
0.490755
0.462621
0.434048
0.405187
0.376188
0.347196
0.318342
0.289741
0.261474
0.233575
0.20603
0.178782
0.151738
0.124783
0.097777
0.0705376
0.0428257
0.014409
0.992007
0.976575
0.96097
0.945313
0.92993
0.915117
0.901073
0.887895
0.875596
0.86412
0.853358
0.843161
0.833353
0.823739
0.814115
0.80428
0.794043
0.783221
0.771649
0.759174
0.745665
0.731009
0.715115
0.697924
0.679402
0.659549
0.638391
0.615983
0.592406
0.567758
0.542151
0.51571
0.488559
0.460821
0.432615
0.404047
0.375214
0.346205
0.317104
0.28799
0.258944
0.230044
0.201363
0.172967
0.144916
0.117264
0.0900603
0.0633584
0.0372454
0.0119467
0.989411
0.97052
0.953079
0.936776
0.921537
0.907354
0.89421
0.882053
0.870793
0.860306
0.850437
0.841012
0.831839
0.822716
0.813439
0.80381
0.793641
0.782766
0.771038
0.758332
0.744543
0.729586
0.713397
0.695936
0.677187
0.657158
0.635886
0.613429
0.589867
0.565295
0.539821
0.513556
0.48661
0.459086
0.431073
0.402644
0.373855
0.344747
0.315359
0.285742
0.255971
0.226163
0.196477
0.16711
0.13828
0.110214
0.0831332
0.0572625
0.0328493
0.0102159
0.987341
0.965705
0.946739
0.929845
0.914653
0.900917
0.888443
0.877057
0.866587
0.856859
0.84769
0.838891
0.830267
0.821614
0.812727
0.803404
0.793454
0.782706
0.771011
0.758252
0.744338
0.729202
0.712801
0.695112
0.676137
0.655898
0.634442
0.611836
0.588163
0.563521
0.538016
0.511755
0.484838
0.457354
0.429374
0.400944
0.372091
0.342824
0.313148
0.283086
0.252708
0.222159
0.191668
0.161548
0.132165
0.103903
0.077126
0.0521679
0.0293294
0.00889733
0.985609
0.961761
0.941573
0.924194
0.909019
0.895613
0.883642
0.872838
0.862967
0.853818
0.845192
0.836895
0.82873
0.820502
0.812008
0.803044
0.793413
0.782929
0.77143
0.758788
0.744905
0.72972
0.713198
0.695334
0.676144
0.655666
0.633962
0.611109
0.587202
0.562347
0.536653
0.510228
0.483171
0.455564
0.427465
0.398909
0.369903
0.340437
0.310493
0.28008
0.24926
0.218191
0.187151
0.156535
0.126827
0.0985375
0.0721445
0.0480486
0.0265565
0.0078859
0.984166
0.958545
0.937393
0.919629
0.904456
0.891291
0.879692
0.869318
0.859892
0.851177
0.842965
0.83506
0.827273
0.819413
0.811288
0.802696
0.793437
0.783311
0.772138
0.759761
0.746063
0.730967
0.714435
0.696465
0.677086
0.656352
0.634341
0.61115
0.586889
0.561678
0.53564
0.50889
0.481531
0.453647
0.425294
0.396502
0.367271
0.337582
0.307413
0.276761
0.245688
0.214352
0.183052
0.152226
0.122427
0.0942529
0.0682625
0.0449032
0.024477
0.00714048
0.983026
0.956022
0.934116
0.91604
0.900846
0.887837
0.876494
0.866421
0.85731
0.848909
0.841001
0.833394
0.825904
0.818353
0.810555
0.802318
0.793443
0.783725
0.772961
0.760969
0.747595
0.732729
0.716311
0.698326
0.678806
0.657816
0.635455
0.611842
0.587112
0.561408
0.534873
0.507641
0.479828
0.451527
0.422801
0.393682
0.364175
0.334262
0.303922
0.273157
0.242023
0.210679
0.179414
0.14867
0.119019
0.0910957
0.0655029
0.0427231
0.0230618
0.0066412
0.982222
0.954207
0.93172
0.913371
0.898114
0.885172
0.873972
0.864082
0.855171
0.846975
0.839276
0.831881
0.824615
0.817307
0.809784
0.801864
0.793354
0.784047
0.773731
0.762197
0.749253
0.734746
0.718569
0.700679
0.68109
0.659872
0.637137
0.613034
0.58773
0.561402
0.534226
0.506364
0.477957
0.449116
0.419918
0.390407
0.360596
0.330478
0.300041
0.26929
0.238284
0.207169
0.176213
0.145828
0.116556
0.0890168
0.0638204
0.0414676
0.0222789
0.00637429
0.981792
0.953132
0.930206
0.911595
0.89621
0.883236
0.872066
0.862245
0.853426
0.845338
0.837758
0.830497
0.823384
0.816255
0.808947
0.801288
0.793095
0.784167
0.774287
0.763232
0.750777
0.736719
0.720899
0.703218
0.683654
0.662259
0.639156
0.614518
0.588553
0.561486
0.533538
0.504914
0.475791
0.446309
0.416567
0.386627
0.356515
0.326237
0.295789
0.265184
0.234478
0.2038
0.173385
0.143593
0.114903
0.0878779
0.0630939
0.0410473
0.0220763
0.00632409
0.981756
0.95282
0.92958
0.910694
0.895101
0.881986
0.870728
0.860863
0.852032
0.843958
0.836415
0.829212
0.822181
0.815165
0.808007
0.800544
0.792602
0.78399
0.774494
0.763884
0.751913
0.73834
0.722947
0.705571
0.686128
0.664633
0.641196
0.61601
0.589328
0.561431
0.532605
0.503112
0.473179
0.442986
0.412662
0.382291
0.351913
0.321545
0.29119
0.260862
0.230609
0.20054
0.170847
0.141826
0.113876
0.0874762
0.0631362
0.0413195
0.0223708
0.00646694
0.982105
0.953257
0.929822
0.910645
0.894757
0.881385
0.86992
0.859897
0.850952
0.8428
0.835211
0.827993
0.820976
0.814005
0.806926
0.799586
0.791816
0.783435
0.774235
0.763987
0.752435
0.739311
0.72435
0.707323
0.688075
0.666557
0.642844
0.617133
0.589716
0.56094
0.531167
0.500736
0.46994
0.439008
0.408108
0.377343
0.346771
0.31641
0.286266
0.256345
0.226681
0.197353
0.168509
0.140378
0.113273
0.0875792
0.0637187
0.0420981
0.0230469
0.00676703
0.982788
0.954375
0.930877
0.911401
0.895138
0.881396
0.869606
0.859311
0.850148
0.841828
0.834113
0.826805
0.819732
0.812736
0.805666
0.798368
0.790681
0.782429
0.773412
0.763405
0.752151
0.739369
0.724764
0.708054
0.689014
0.667521
0.643595
0.617412
0.589289
0.559637
0.528906
0.497525
0.465866
0.434223
0.402801
0.371729
0.341069
0.310841
0.281038
0.251651
0.222691
0.194204
0.16629
0.139113
0.112906
0.0879604
0.0646063
0.0431774
0.0239656
0.00717609
0.983716
0.956046
0.932629
0.912877
0.896182
0.881974
0.869746
0.85907
0.849588
0.841008
0.833085
0.825613
0.818412
0.811319
0.804179
0.796839
0.789137
0.780901
0.771935
0.762018
0.750899
0.738291
0.723886
0.707372
0.688469
0.666989
0.642884
0.616293
0.587535
0.557074
0.525444
0.493174
0.460728
0.428466
0.396639
0.365393
0.334794
0.304846
0.275525
0.246795
0.218638
0.191062
0.16412
0.137919
0.112618
0.0884269
0.0655894
0.0443624
0.0249837
0.00763836
0.984776
0.958089
0.93491
0.914943
0.897798
0.883055
0.870295
0.859135
0.849236
0.840304
0.832089
0.824375
0.816972
0.809707
0.802418
0.794945
0.787124
0.778779
0.769717
0.759719
0.748537
0.735889
0.721465
0.704942
0.686014
0.664448
0.640143
0.613191
0.583896
0.552751
0.520363
0.487354
0.45428
0.421572
0.389523
0.358292
0.327936
0.298439
0.269747
0.241792
0.21452
0.187901
0.161946
0.13671
0.112292
0.0888341
0.0665063
0.0454939
0.0259758
0.00809974
0.985855
0.960299
0.93751
0.917424
0.89986
0.884551
0.871191
0.859459
0.849049
0.839676
0.831086
0.82305
0.815367
0.80785
0.800325
0.792622
0.784569
0.775983
0.766666
0.7564
0.744938
0.732003
0.717295
0.700495
0.681302
0.659468
0.634869
0.607561
0.577828
0.546171
0.513242
0.479737
0.446288
0.41339
0.38137
0.350392
0.320497
0.291639
0.263727
0.236657
0.210338
0.184705
0.15973
0.135429
0.111853
0.0890891
0.0672509
0.0464635
0.0268507
0.00851707
0.986865
0.962487
0.940205
0.920118
0.902204
0.886346
0.872351
0.859984
0.848982
0.839081
0.830029
0.821589
0.813543
0.805689
0.797836
0.789799
0.781393
0.772422
0.762682
0.751948
0.739972
0.726487
0.711205
0.69383
0.674083
0.651741
0.626688
0.59898
0.568891
0.536915
0.50372
0.470039
0.436555
0.403803
0.372126
0.341686
0.312496
0.284475
0.257494
0.231411
0.2061
0.181468
0.157456
0.134048
0.111262
0.0891461
0.0677703
0.0472143
0.027557
0.00886364
0.987748
0.964504
0.942798
0.922818
0.904653
0.888299
0.873676
0.860634
0.848975
0.838468
0.82887
0.819938
0.811441
0.803158
0.794877
0.786393
0.777502
0.767994
0.757651
0.746238
0.73351
0.719205
0.703056
0.684801
0.664205
0.641094
0.615403
0.58722
0.55683
0.524728
0.491569
0.458088
0.424969
0.392755
0.361784
0.332196
0.303972
0.276991
0.251085
0.226081
0.201824
0.178197
0.155123
0.132563
0.110514
0.0889974
0.0680544
0.0477329
0.0280796
0.0091295
0.988482
0.966257
0.945138
0.925346
0.907027
0.890257
0.875043
0.861321
0.848961
0.837778
0.82755
0.818039
0.808997
0.800184
0.791365
0.782311
0.772793
0.762583
0.751447
0.739141
0.725419
0.710031
0.692738
0.67332
0.651607
0.627498
0.601002
0.572274
0.541638
0.509592
0.476773
0.443875
0.411545
0.380286
0.350401
0.321989
0.294991
0.269246
0.244551
0.220705
0.197536
0.174914
0.152748
0.130992
0.109628
0.0886643
0.0681246
0.0480376
0.0284299
0.00931783
0.989064
0.967707
0.947136
0.92757
0.909177
0.892074
0.876328
0.861945
0.848861
0.836946
0.826011
0.815826
0.806138
0.796686
0.787208
0.777448
0.76715
0.756064
0.743937
0.730521
0.71557
0.698855
0.680172
0.65936
0.636323
0.611053
0.583654
0.554363
0.52356
0.491757
0.459562
0.427608
0.396463
0.366555
0.338115
0.311185
0.285654
0.26132
0.237953
0.215333
0.193278
0.171652
0.150365
0.129368
0.108642
0.0881878
0.0680226
0.0481663
0.0286361
0.00944013
0.98951
0.968854
0.948755
0.929413
0.910993
0.893626
0.877411
0.862402
0.848591
0.835902
0.824187
0.813236
0.802793
0.79258
0.782311
0.771696
0.760453
0.748306
0.734989
0.720249
0.703851
0.685596
0.665329
0.64296
0.618482
0.591989
0.563686
0.5339
0.503066
0.471711
0.440406
0.409706
0.38008
0.351851
0.325156
0.29996
0.276094
0.253316
0.231371
0.210026
0.189099
0.168458
0.14802
0.127741
0.107607
0.0876216
0.0678021
0.0481675
0.0287346
0.00951185
0.989838
0.96972
0.95
0.930848
0.912414
0.894827
0.878196
0.8626
0.848072
0.83458
0.822019
0.810205
0.798891
0.787786
0.776577
0.764947
0.752583
0.739187
0.724481
0.708216
0.690182
0.670221
0.648243
0.624243
0.598311
0.570646
0.541554
0.511439
0.480783
0.45011
0.419944
0.390754
0.362897
0.336579
0.311835
0.288546
0.26648
0.245356
0.224893
0.204855
0.18506
0.165388
0.145768
0.126168
0.106583
0.0870273
0.0675227
0.0480943
0.0287647
0.00954961
0.990071
0.970344
0.950903
0.931887
0.913424
0.895633
0.878619
0.862468
0.847234
0.832919
0.819452
0.806681
0.794372
0.782231
0.769925
0.757106
0.743437
0.728602
0.712319
0.694356
0.674538
0.652767
0.629032
0.603424
0.576136
0.547468
0.517811
0.487627
0.457419
0.42769
0.398898
0.371415
0.345488
0.32121
0.298517
0.277211
0.257003
0.237573
0.218619
0.199895
0.181227
0.162504
0.143671
0.124712
0.105636
0.0864705
0.0672468
0.0480008
0.0287657
0.00956963
0.990227
0.970767
0.951508
0.932563
0.91404
0.896038
0.878651
0.861962
0.84603
0.830873
0.816449
0.802629
0.789201
0.775872
0.762297
0.748109
0.732949
0.716491
0.698463
0.678662
0.656967
0.633356
0.60791
0.58082
0.552381
0.52298
0.493071
0.463146
0.433697
0.405178
0.377969
0.352338
0.328423
0.306217
0.285574
0.266234
0.247863
0.230108
0.212647
0.195224
0.177665
0.159868
0.141793
0.12344
0.104835
0.0860187
0.0670376
0.0479407
0.0287758
0.00958729
0.990326
0.971028
0.951867
0.932929
0.914301
0.896063
0.878295
0.861069
0.844437
0.828422
0.812992
0.798039
0.783368
0.768698
0.753681
0.73794
0.721108
0.702861
0.68295
0.66122
0.637621
0.612221
0.5852
0.556851
0.527556
0.497768
0.467974
0.438664
0.410288
0.383229
0.357769
0.334075
0.312186
0.292009
0.273339
0.255871
0.239246
0.223092
0.207069
0.19091
0.174433
0.157538
0.140195
0.122418
0.104247
0.0857397
0.066958
0.0479671
0.0288322
0.00961728
0.990383
0.971168
0.952033
0.933042
0.91426
0.895753
0.877582
0.859805
0.842462
0.825567
0.80909
0.792931
0.776908
0.760754
0.744129
0.726661
0.707991
0.687814
0.665925
0.642231
0.616771
0.589712
0.561336
0.532026
0.502232
0.472444
0.443149
0.4148
0.387779
0.362379
0.33878
0.31705
0.297139
0.278892
0.26206
0.246319
0.231302
0.216632
0.201961
0.187008
0.171578
0.155563
0.138931
0.121705
0.103937
0.0856995
0.0670707
0.0481332
0.0289721
0.00967407
0.990413
0.971224
0.952059
0.932962
0.913981
0.895165
0.87656
0.858207
0.840132
0.822335
0.804776
0.787353
0.769892
0.752137
0.733766
0.714426
0.693783
0.671577
0.647662
0.622031
0.594822
0.566303
0.536854
0.506929
0.47702
0.447619
0.41918
0.39209
0.366644
0.343033
0.321338
0.301537
0.283509
0.267051
0.251891
0.237703
0.224128
0.210799
0.197371
0.183551
0.169127
0.15397
0.138038
0.121349
0.103962
0.0859601
0.0674365
0.0484922
0.0292334
0.00977266
0.99043
0.971234
0.951999
0.932753
0.91353
0.894364
0.875288
0.856329
0.837496
0.818773
0.800105
0.781381
0.762427
0.742997
0.722789
0.701483
0.67879
0.654512
0.628585
0.601102
0.57231
0.542581
0.512373
0.482189
0.452532
0.423864
0.396576
0.370968
0.347233
0.325462
0.305644
0.287681
0.271398
0.256563
0.242894
0.230075
0.217769
0.205628
0.193319
0.180548
0.167081
0.152766
0.137532
0.121381
0.104367
0.0865757
0.0681134
0.0490973
0.0296556
0.00992921
0.99045
0.971235
0.951906
0.932477
0.912973
0.893417
0.873832
0.854232
0.834612
0.81494
0.795145
0.775107
0.754644
0.73352
0.711454
0.688165
0.663421
0.637103
0.609246
0.580056
0.54989
0.519217
0.488561
0.458446
0.429354
0.401689
0.375757
0.351757
0.329779
0.309818
0.291784
0.275519
0.260813
0.247417
0.235053
0.223423
0.212214
0.201109
0.189795
0.177981
0.16542
0.151928
0.1374
0.121804
0.105173
0.0875859
0.0691516
0.0499998
0.0302796
0.0101617
0.990488
0.971265
0.951832
0.932198
0.912378
0.892393
0.872259
0.85198
0.831542
0.810901
0.789974
0.768629
0.746684
0.723906
0.70004
0.674844
0.648149
0.61992
0.590294
0.559594
0.528289
0.496934
0.4661
0.436314
0.408011
0.381518
0.35704
0.334671
0.314404
0.296149
0.279751
0.265011
0.251694
0.239547
0.228304
0.217689
0.20742
0.197207
0.186764
0.175813
0.164098
0.151409
0.137598
0.122589
0.106374
0.0890075
0.0705868
0.051245
0.0311464
0.0104902
0.99056
0.971364
0.951834
0.931977
0.911812
0.891358
0.870632
0.849635
0.828348
0.806722
0.784667
0.762047
0.73868
0.714346
0.688815
0.661885
0.633445
0.603537
0.572392
0.540438
0.508243
0.47644
0.445637
0.416346
0.388947
0.363677
0.34064
0.319828
0.301145
0.28443
0.269479
0.256063
0.243936
0.23285
0.222552
0.212792
0.203314
0.193862
0.184174
0.173989
0.163054
0.151139
0.138055
0.123672
0.107926
0.0908233
0.0724299
0.052864
0.0322926
0.0109357
0.990682
0.97157
0.951962
0.931875
0.911336
0.890372
0.869008
0.847252
0.825086
0.802464
0.779295
0.755449
0.730754
0.705009
0.678011
0.649599
0.619714
0.588455
0.556125
0.523227
0.490408
0.458362
0.427726
0.398998
0.372502
0.348393
0.32668
0.307262
0.289969
0.274581
0.260859
0.248553
0.237417
0.227207
0.217689
0.208635
0.199816
0.191003
0.181961
0.17245
0.162222
0.151039
0.138679
0.124957
0.109743
0.0929728
0.0746539
0.0548618
0.0337426
0.0115183
0.99087
0.97192
0.952267
0.931946
0.911003
0.889486
0.867437
0.844877
0.821803
0.798176
0.773919
0.748915
0.723009
0.696028
0.667804
0.638216
0.607245
0.575031
0.541912
0.508431
0.475272
0.44317
0.41278
0.384597
0.358906
0.335795
0.315199
0.296944
0.280795
0.26649
0.253762
0.242349
0.232006
0.222498
0.213607
0.205123
0.196842
0.188559
0.180062
0.17113
0.161532
0.151025
0.139366
0.126324
0.111701
0.0953474
0.0771818
0.0572023
0.0354959
0.0122516
0.991136
0.972443
0.952786
0.93223
0.910854
0.888738
0.865952
0.842544
0.818532
0.7939
0.768589
0.742506
0.715525
0.687504
0.658314
0.627874
0.596197
0.563445
0.529961
0.49628
0.463085
0.431109
0.40102
0.373312
0.348259
0.325917
0.30617
0.288795
0.273513
0.260028
0.248052
0.237318
0.227578
0.218607
0.210201
0.202164
0.194311
0.186457
0.178411
0.169971
0.160919
0.151018
0.140016
0.127649
0.113654
0.0977957
0.0798821
0.059795
0.0375128
0.0131352
0.991483
0.973149
0.953536
0.932749
0.910911
0.888147
0.864571
0.84027
0.815295
0.789662
0.763343
0.736273
0.708361
0.679503
0.649608
0.61863
0.58661
0.553712
0.520263
0.486758
0.453829
0.422172
0.392439
0.365131
0.340532
0.318698
0.299505
0.282705
0.267997
0.255062
0.2436
0.233334
0.224017
0.215431
0.207378
0.199675
0.19215
0.184633
0.17695
0.168914
0.160324
0.150951
0.140541
0.128809
0.115449
0.10014
0.0825758
0.0624904
0.0397006
0.014145
0.9919
0.974024
0.954506
0.933494
0.911166
0.887708
0.86329
0.838054
0.812099
0.78548
0.758208
0.730253
0.701561
0.672064
0.641708
0.610477
0.578428
0.54572
0.512646
0.479637
0.447249
0.416104
0.386809
0.359857
0.335552
0.313986
0.295058
0.278535
0.264111
0.251463
0.240281
0.230283
0.221221
0.212876
0.205055
0.197582
0.190293
0.183028
0.175625
0.167911
0.159696
0.150764
0.140865
0.129705
0.116945
0.102202
0.0850573
0.0650896
0.0419112
0.0152244
0.992362
0.975016
0.955638
0.934411
0.911573
0.887382
0.862081
0.83588
0.808938
0.781362
0.753205
0.724475
0.695154
0.665206
0.634607
0.603361
0.571534
0.539272
0.506826
0.474556
0.442926
0.412465
0.383707
0.357116
0.333011
0.311531
0.292628
0.276114
0.261709
0.249101
0.237982
0.228065
0.219099
0.210863
0.203161
0.195821
0.188681
0.181588
0.174387
0.166915
0.158992
0.150412
0.14093
0.130254
0.118026
0.103818
0.0871234
0.0673708
0.0439538
0.0162841
0.992824
0.976034
0.956823
0.935394
0.91204
0.887094
0.860887
0.83371
0.805796
0.777309
0.748349
0.718962
0.689159
0.658931
0.628271
0.597199
0.565777
0.534134
0.502475
0.471094
0.440363
0.410711
0.382588
0.356405
0.332479
0.310986
0.291946
0.275236
0.260631
0.247849
0.236595
0.226588
0.217571
0.209319
0.201632
0.194334
0.187264
0.180268
0.173195
0.165887
0.158172
0.149852
0.140689
0.130394
0.118604
0.104862
0.0885994
0.0691233
0.0456248
0.017212
0.993233
0.976953
0.957902
0.936281
0.912421
0.886727
0.859622
0.831491
0.802647
0.773319
0.743655
0.713734
0.68359
0.653229
0.622657
0.591892
0.560992
0.53006
0.499264
0.468833
0.43906
0.410284
0.382867
0.357156
0.333443
0.311925
0.292677
0.27565
0.260689
0.247565
0.236013
0.225765
0.216565
0.208184
0.200414
0.193074
0.185995
0.179024
0.172007
0.164789
0.1572
0.149048
0.140103
0.13008
0.118615
0.105243
0.089355
0.0701775
0.0467435
0.0178954
0.993533
0.977629
0.958681
0.936864
0.912524
0.886124
0.858174
0.829153
0.79946
0.769391
0.739138
0.70881
0.678455
0.648087
0.617709
0.587338
0.557014
0.526821
0.496888
0.467395
0.438569
0.410672
0.38399
0.358804
0.335367
0.313872
0.294429
0.277053
0.26166
0.248087
0.236116
0.225506
0.21601
0.207398
0.199456
0.191993
0.184835
0.177819
0.170788
0.163585
0.156042
0.147968
0.139137
0.129272
0.118014
0.104899
0.0893059
0.0704204
0.0471804
0.0182445
0.993676
0.977924
0.958953
0.936906
0.912122
0.885097
0.856407
0.826615
0.7962
0.765522
0.734816
0.704211
0.673763
0.643485
0.613373
0.583433
0.553691
0.524209
0.495086
0.466462
0.438514
0.411447
0.385482
0.360844
0.337741
0.316346
0.296782
0.279101
0.263281
0.249223
0.236768
0.225713
0.215833
0.206905
0.198712
0.191053
0.183745
0.176616
0.169503
0.162242
0.154662
0.146574
0.137755
0.127934
0.116764
0.10379
0.0884052
0.0697936
0.046868
0.0182084
0.993626
0.977721
0.958532
0.93618
0.910983
0.883444
0.854172
0.823787
0.792831
0.761716
0.73071
0.699959
0.669522
0.639404
0.609593
0.580082
0.550884
0.522043
0.493636
0.465774
0.438598
0.41227
0.386966
0.362863
0.340128
0.31891
0.299321
0.281431
0.265254
0.250747
0.237803
0.226269
0.215953
0.206646
0.198136
0.190216
0.182693
0.175385
0.168119
0.160724
0.153025
0.144829
0.135918
0.126028
0.114828
0.101886
0.086629
0.06828
0.0457933
0.0177776
0.993359
0.976938
0.957277
0.934497
0.908904
0.880981
0.85133
0.820586
0.789321
0.757977
0.726843
0.696078
0.665738
0.635825
0.606318
0.577199
0.548473
0.520172
0.492359
0.465127
0.438592
0.412888
0.388158
0.364545
0.342184
0.321194
0.301674
0.283689
0.267271
0.252405
0.239031
0.227039
0.216275
0.206557
0.197682
0.189445
0.181647
0.174096
0.166606
0.158999
0.151091
0.14269
0.133579
0.123506
0.112163
0.0991537
0.0839601
0.0658835
0.0439781
0.0169737
0.99286
0.975523
0.955097
0.931738
0.905747
0.877573
0.847774
0.816948
0.785648
0.754312
0.723239
0.692587
0.662418
0.632729
0.603498
0.574706
0.546353
0.518469
0.49111
0.46436
0.438322
0.413111
0.38885
0.365659
0.343648
0.322914
0.303535
0.285565
0.269033
0.253937
0.240239
0.227862
0.216689
0.206563
0.197304
0.188712
0.180587
0.172727
0.16494
0.157035
0.148823
0.140108
0.130682
0.120308
0.108709
0.0955436
0.0803713
0.0626069
0.0414547
0.0158335
0.992114
0.973443
0.951951
0.927855
0.901463
0.873173
0.843465
0.812849
0.781809
0.75074
0.71992
0.689507
0.659563
0.630097
0.601091
0.572535
0.544436
0.516829
0.489772
0.463347
0.437653
0.412798
0.388891
0.366038
0.344334
0.323856
0.304666
0.286802
0.27028
0.255095
0.241212
0.22857
0.217071
0.206587
0.196956
0.187992
0.179498
0.17127
0.163105
0.154808
0.146182
0.137033
0.127162
0.116358
0.104387
0.0909807
0.0758062
0.0584268
0.038239
0.0143914
0.991103
0.970671
0.947832
0.922874
0.896097
0.867835
0.838452
0.808332
0.777841
0.747292
0.716914
0.686852
0.657176
0.627909
0.599056
0.570626
0.542646
0.515162
0.488245
0.461984
0.436479
0.411837
0.388164
0.365558
0.344102
0.323863
0.304888
0.287199
0.270798
0.255662
0.241748
0.228989
0.217294
0.206546
0.196596
0.187273
0.178386
0.169733
0.161109
0.15231
0.143141
0.133413
0.122943
0.111557
0.099083
0.0853467
0.0701554
0.0532615
0.0342953
0.0126586
0.989784
0.967151
0.942737
0.916867
0.889786
0.86172
0.83289
0.803523
0.773837
0.744029
0.714258
0.684641
0.655253
0.626145
0.597356
0.568927
0.540914
0.51339
0.486444
0.460179
0.434705
0.410133
0.386571
0.364114
0.342842
0.322813
0.304064
0.286603
0.270414
0.255457
0.241668
0.228962
0.217234
0.206359
0.19619
0.186561
0.177284
0.168161
0.158988
0.149563
0.139694
0.129207
0.117947
0.10579
0.0926459
0.0784625
0.0632236
0.0469213
0.0294797
0.0105891
0.988053
0.962755
0.936642
0.90994
0.882736
0.855084
0.827033
0.798637
0.769956
0.741056
0.71201
0.682896
0.653795
0.624786
0.595953
0.567385
0.539179
0.511441
0.48429
0.457849
0.432242
0.407594
0.384017
0.361609
0.340451
0.320598
0.302076
0.284885
0.268991
0.254335
0.240826
0.228351
0.216779
0.205957
0.19572
0.185885
0.176261
0.166647
0.156839
0.146642
0.13588
0.124404
0.112105
0.0989273
0.0848833
0.0700704
0.0546872
0.0390296
0.0234252
0.00799326
0.985591
0.957174
0.929462
0.902223
0.875217
0.848262
0.821218
0.79397
0.766425
0.738526
0.710259
0.681658
0.652804
0.623812
0.594813
0.565952
0.537379
0.509245
0.481703
0.454906
0.429
0.404123
0.380401
0.35794
0.336824
0.317106
0.298811
0.281927
0.266406
0.252167
0.239095
0.227042
0.215837
0.205287
0.195184
0.185309
0.175439
0.165352
0.154838
0.143711
0.131818
0.119058
0.105389
0.0908488
0.0755743
0.0598306
0.044055
0.0289073
0.0153004
0.00424813
0.981266
0.949741
0.921066
0.8939
0.867566
0.841648
0.815836
0.78987
0.763527
0.736644
0.709131
0.680988
0.652296
0.623203
0.593893
0.564571
0.535446
0.506722
0.478597
0.451256
0.424874
0.399612
0.37561
0.352987
0.331836
0.312214
0.294142
0.277603
0.262535
0.248836
0.236361
0.22493
0.214327
0.204306
0.1946
0.184925
0.174993
0.164528
0.153284
0.14107
0.127766
0.113343
0.0978628
0.0814928
0.064515
0.0473619
0.0306834
0.0154747
0.00334431
-0.00284246
)
;

boundaryField
{
    left
    {
        type            fixedValue;
        value           uniform 1;
    }
    right
    {
        type            fixedValue;
        value           uniform 0;
    }
    bottom
    {
        type            zeroGradient;
    }
    top
    {
        type            zeroGradient;
    }
    frontAndBack
    {
        type            empty;
    }
}


// ************************************************************************* //
