/*--------------------------------*- C++ -*----------------------------------*\
  =========                 |
  \\      /  F ield         | OpenFOAM: The Open Source CFD Toolbox
   \\    /   O peration     | Website:  https://openfoam.org
    \\  /    A nd           | Version:  8
     \\/     M anipulation  |
\*---------------------------------------------------------------------------*/
FoamFile
{
    version     2.0;
    format      ascii;
    class       volScalarField;
    location    "1";
    object      v;
}
// * * * * * * * * * * * * * * * * * * * * * * * * * * * * * * * * * * * * * //

dimensions      [0 0 0 0 0 0 0];

internalField   nonuniform List<scalar> 
2500
(
-0.987351
-0.959523
-0.925846
-0.88532
-0.837312
-0.781553
-0.717991
-0.64667
-0.567685
-0.481175
-0.387341
-0.28647
-0.17898
-0.0654853
0.0530918
0.175375
0.299361
0.422287
0.540628
0.650356
0.747484
0.828781
0.892393
0.938122
0.967254
0.982047
0.985098
0.978846
0.965367
0.946449
0.923793
0.89912
0.874126
0.850332
0.828965
0.810911
0.796751
0.786817
0.781271
0.780158
0.783447
0.79106
0.80288
0.818758
0.838508
0.861896
0.888611
0.918222
0.950093
0.98326
-0.987608
-0.960435
-0.927665
-0.888124
-0.841022
-0.785993
-0.722947
-0.651931
-0.573054
-0.486466
-0.392369
-0.291029
-0.182823
-0.0683063
0.0516656
0.175761
0.30195
0.427315
0.548022
0.659632
0.757768
0.838995
0.901527
0.945477
0.972566
0.985456
0.987001
0.979699
0.965508
0.94602
0.922777
0.897452
0.871782
0.847369
0.825502
0.80709
0.792705
0.782657
0.777081
0.776001
0.77937
0.787102
0.799078
0.815156
0.83516
0.858872
0.886007
0.916168
0.94875
0.982782
-0.988095
-0.962104
-0.930897
-0.89306
-0.847565
-0.793865
-0.731779
-0.661332
-0.582643
-0.495882
-0.401258
-0.29903
-0.18955
-0.0733462
0.0487279
0.175271
0.304064
0.431848
0.554346
0.666689
0.764261
0.843682
0.903524
0.944437
0.968691
0.979373
0.97956
0.971742
0.95767
0.938613
0.915794
0.89068
0.864966
0.840327
0.818161
0.799476
0.784896
0.774753
0.76918
0.768192
0.771733
0.779715
0.792024
0.808528
0.829072
0.853468
0.881462
0.912684
0.94654
0.982017
-0.988745
-0.96428
-0.935006
-0.899275
-0.855805
-0.803826
-0.743008
-0.673306
-0.594833
-0.507778
-0.41238
-0.308931
-0.197829
-0.0796764
0.0445267
0.173131
0.303556
0.432121
0.554188
0.664737
0.759304
0.834951
0.890839
0.928191
0.949712
0.958735
0.958394
0.95109
0.938355
0.921129
0.900248
0.876837
0.852383
0.828529
0.806771
0.788257
0.773746
0.763664
0.7582
0.757397
0.761219
0.76959
0.782413
0.799579
0.82096
0.846394
0.875646
0.908347
0.943867
0.981113
-0.989443
-0.966574
-0.939253
-0.905638
-0.864232
-0.814037
-0.754536
-0.68557
-0.607212
-0.519674
-0.423259
-0.318364
-0.205534
-0.0855964
0.040138
0.169621
0.299845
0.426797
0.545752
0.651936
0.741442
0.812026
0.863487
0.897489
0.916932
0.925146
0.925151
0.919188
0.908617
0.894152
0.87632
0.855876
0.833979
0.812086
0.791681
0.774026
0.760042
0.750312
0.745143
0.744661
0.748887
0.757782
0.771288
0.789326
0.811797
0.838553
0.869351
0.903776
0.941119
0.9802
-0.99001
-0.96843
-0.942648
-0.910681
-0.87087
-0.822027
-0.763449
-0.694845
-0.616242
-0.527888
-0.430205
-0.323781
-0.209438
-0.0883612
0.0377124
0.1663
0.294064
0.416911
0.53038
0.630304
0.713564
0.778668
0.825941
0.857262
0.875478
0.883699
0.884691
0.880497
0.872355
0.860887
0.846466
0.829584
0.811073
0.792099
0.773989
0.758004
0.745178
0.736247
0.731675
0.731716
0.736485
0.74602
0.760314
0.779334
0.803002
0.831165
0.863543
0.899645
0.938668
0.979391
-0.990209
-0.969121
-0.943953
-0.912597
-0.873281
-0.824685
-0.76598
-0.696797
-0.617168
-0.527444
-0.428248
-0.320462
-0.205279
-0.0843053
0.0403119
0.165785
0.288699
0.405199
0.511402
0.603943
0.680536
0.740337
0.783999
0.813401
0.831139
0.839967
0.842318
0.840013
0.834206
0.825522
0.814321
0.800991
0.786142
0.770662
0.755634
0.742181
0.731317
0.723855
0.720377
0.721265
0.726754
0.736977
0.752005
0.771858
0.796485
0.825732
0.85928
0.896586
0.936811
0.978762
-0.989746
-0.967784
-0.94174
-0.909348
-0.868736
-0.818524
-0.757879
-0.686508
-0.604601
-0.512758
-0.411921
-0.303344
-0.188601
-0.0696364
0.051181
0.171041
0.28677
0.395049
0.492746
0.577332
0.647248
0.702115
0.742723
0.77078
0.788524
0.798287
0.802143
0.801695
0.798029
0.791813
0.78348
0.773436
0.762204
0.750483
0.739122
0.729029
0.721063
0.715966
0.714318
0.716552
0.722976
0.733816
0.749236
0.769339
0.794152
0.823581
0.857357
0.89498
0.935672
0.978333
-0.988302
-0.963492
-0.934514
-0.898872
-0.854574
-0.800273
-0.735316
-0.659724
-0.574088
-0.47945
-0.377184
-0.26891
-0.15646
-0.0418835
0.0725401
0.184314
0.290801
0.389395
0.47776
0.554111
0.617449
0.667677
0.705565
0.732559
0.750491
0.761269
0.766622
0.767945
0.766263
0.762297
0.756579
0.749589
0.741846
0.733953
0.726579
0.720405
0.716064
0.714104
0.714969
0.719014
0.726537
0.737806
0.753075
0.77258
0.796507
0.824938
0.857786
0.894728
0.935141
0.978058
-0.985571
-0.955366
-0.920911
-0.879396
-0.828718
-0.767689
-0.696074
-0.61447
-0.524093
-0.426547
-0.32363
-0.217201
-0.109127
-0.0012729
0.104473
0.206186
0.30194
0.3899
0.468473
0.536486
0.593337
0.639066
0.674332
0.700279
0.718343
0.730036
0.736773
0.73976
0.739963
0.738136
0.734897
0.730795
0.726363
0.722133
0.718621
0.716301
0.715578
0.716785
0.720195
0.72605
0.734594
0.746102
0.760892
0.779319
0.80174
0.828462
0.859655
0.895268
0.934923
0.977846
-0.981312
-0.942723
-0.899928
-0.849793
-0.790177
-0.720242
-0.640401
-0.552001
-0.456934
-0.357283
-0.255092
-0.152229
-0.0503531
0.0490657
0.144693
0.23528
0.319638
0.39666
0.465401
0.525174
0.575654
0.616935
0.649528
0.674286
0.692283
0.704687
0.712634
0.717157
0.719148
0.719371
0.718481
0.717052
0.715596
0.714556
0.714307
0.715148
0.717312
0.720988
0.726341
0.733551
0.742833
0.754463
0.768786
0.786215
0.807215
0.832255
0.861739
0.895905
0.934693
0.977603
-0.975409
-0.925237
-0.871174
-0.809886
-0.739371
-0.659347
-0.570996
-0.476378
-0.377864
-0.277737
-0.177992
-0.0802618
0.0141709
0.104318
0.18941
0.26882
0.342002
0.408469
0.467801
0.5197
0.564045
0.600954
0.630797
0.654176
0.671865
0.684736
0.693684
0.699579
0.703225
0.705349
0.70659
0.707495
0.708511
0.709983
0.712172
0.715262
0.719397
0.724699
0.731298
0.739358
0.749088
0.760766
0.774742
0.791447
0.811387
0.835123
0.863221
0.896169
0.934233
0.977271
-0.967923
-0.903089
-0.83507
-0.760632
-0.678169
-0.58808
-0.492225
-0.393095
-0.293162
-0.194551
-0.0989291
-0.00751532
0.0788596
0.159676
0.234642
0.30362
0.366552
0.423413
0.474183
0.518862
0.557494
0.590219
0.617304
0.63916
0.656322
0.669422
0.679152
0.68622
0.691326
0.695122
0.698183
0.70099
0.70391
0.70721
0.711077
0.715643
0.721018
0.727311
0.734651
0.743201
0.753175
0.764848
0.77857
0.794771
0.813972
0.836779
0.863865
0.89591
0.933484
0.976836
-0.959119
-0.877057
-0.79296
-0.704141
-0.609665
-0.510577
-0.409102
-0.307712
-0.208568
-0.113328
-0.0231441
0.0612572
0.139495
0.211452
0.277204
0.336949
0.390955
0.439501
0.48284
0.521183
0.554706
0.583582
0.608021
0.628299
0.644779
0.657908
0.668203
0.676225
0.68255
0.687731
0.692257
0.696525
0.700837
0.705406
0.710385
0.715892
0.722034
0.728923
0.736695
0.745521
0.755616
0.767253
0.780776
0.796612
0.815287
0.837434
0.863799
0.895212
0.932506
0.976325
-0.949474
-0.848529
-0.747091
-0.643521
-0.537789
-0.431397
-0.326482
-0.225038
-0.128572
-0.0380806
0.0458743
0.123061
0.193497
0.257386
0.315059
0.366931
0.413458
0.455091
0.492242
0.525256
0.554402
0.579893
0.601912
0.620659
0.636381
0.649386
0.660049
0.668799
0.676087
0.682357
0.688004
0.693354
0.698656
0.704095
0.709813
0.715928
0.722554
0.729813
0.737848
0.746833
0.756983
0.76857
0.781931
0.797491
0.815776
0.837441
0.863285
0.894258
0.931418
0.975783
-0.939629
-0.819396
-0.700437
-0.582586
-0.466875
-0.355011
-0.248619
-0.148849
-0.0563441
0.0286426
0.106135
0.176346
0.239624
0.296409
0.347203
0.392546
0.432985
0.469052
0.50123
0.529933
0.555484
0.578125
0.598041
0.61539
0.630348
0.643129
0.653996
0.663264
0.671271
0.678359
0.684839
0.690975
0.696982
0.703029
0.709254
0.715783
0.722736
0.730242
0.73845
0.747536
0.757715
0.769254
0.782487
0.797834
0.815825
0.837128
0.862587
0.893247
0.930355
0.975264
-0.930317
-0.791826
-0.65637
-0.52546
-0.401253
-0.285487
-0.179009
-0.0819327
0.00604064
0.0853975
0.1567
0.22054
0.277522
0.328257
0.373355
0.413417
0.449027
0.480736
0.509044
0.534383
0.557098
0.577449
0.595624
0.611767
0.626013
0.638515
0.64946
0.659068
0.667586
0.675268
0.682358
0.68907
0.695592
0.702082
0.70868
0.715512
0.722707
0.730399
0.738739
0.747904
0.758109
0.769618
0.782759
0.797951
0.815723
0.836756
0.861926
0.892353
0.929437
0.974815
-0.922252
-0.767953
-0.618221
-0.476124
-0.344903
-0.226312
-0.120407
-0.0262742
0.0572931
0.131463
0.19727
0.255621
0.307322
0.353103
0.393639
0.429559
0.46145
0.489851
0.515249
0.538064
0.558638
0.577233
0.594038
0.609195
0.622821
0.635033
0.645966
0.655776
0.664641
0.672749
0.680287
0.687433
0.69435
0.701187
0.70808
0.71516
0.722557
0.730409
0.73887
0.748117
0.758363
0.769869
0.782962
0.798054
0.815677
0.836518
0.861474
0.89172
0.928769
0.97448
-0.916023
-0.749549
-0.58879
-0.437947
-0.301151
-0.180305
-0.0749231
0.0167283
0.0966232
0.166519
0.227857
0.281811
0.329345
0.371283
0.408341
0.441159
0.470311
0.496316
0.519631
0.540649
0.559695
0.577019
0.592811
0.60721
0.620328
0.632269
0.643138
0.653055
0.662149
0.670561
0.678438
0.685925
0.693166
0.700296
0.707449
0.714753
0.722341
0.730352
0.738941
0.748287
0.758602
0.770145
0.783238
0.798292
0.815834
0.836555
0.861361
0.891459
0.928432
0.974293
-0.912001
-0.737746
-0.569926
-0.413255
-0.272391
-0.149542
-0.0441112
0.0460705
0.123503
0.190402
0.248551
0.29935
0.343905
0.383119
0.417745
0.448428
0.475732
0.500146
0.522099
0.541953
0.560003
0.576488
0.591591
0.605452
0.618187
0.629899
0.640686
0.650648
0.659891
0.668526
0.67667
0.684442
0.691967
0.699367
0.706768
0.714296
0.722083
0.73027
0.739013
0.74849
0.758913
0.77054
0.78369
0.798771
0.816304
0.836975
0.86169
0.89166
0.928495
0.974282
-0.9103
-0.732896
-0.56227
-0.403014
-0.259826
-0.135245
-0.0289998
0.0610218
0.137503
0.202935
0.259354
0.308356
0.351181
0.388809
0.422035
0.451515
0.477805
0.501372
0.522614
0.541862
0.559388
0.575415
0.590119
0.603648
0.616127
0.62767
0.63838
0.648357
0.6577
0.666504
0.674867
0.682891
0.690681
0.698348
0.706005
0.713775
0.721788
0.730182
0.739116
0.748768
0.759351
0.77112
0.784394
0.799573
0.817173
0.837867
0.862545
0.892397
0.929011
0.974468
-0.910785
-0.734592
-0.565237
-0.406716
-0.263273
-0.1376
-0.0300014
0.0611237
0.138235
0.203838
0.260097
0.308747
0.35115
0.388369
0.421245
0.450455
0.476551
0.499984
0.521128
0.540288
0.557717
0.573626
0.588196
0.601585
0.613935
0.625379
0.636037
0.646021
0.655435
0.664372
0.672924
0.681179
0.689229
0.697169
0.705106
0.713151
0.72143
0.73008
0.739259
0.749146
0.759953
0.771937
0.785411
0.80077
0.818518
0.839308
0.863998
0.893729
0.930019
0.974866
-0.913129
-0.741836
-0.57725
-0.422528
-0.281123
-0.155568
-0.0466874
0.0463588
0.125442
0.192771
0.25044
0.30023
0.343578
0.381619
0.415243
0.44515
0.471893
0.495912
0.51756
0.537129
0.554862
0.570973
0.585654
0.599084
0.611432
0.622855
0.633498
0.643495
0.652965
0.66201
0.670725
0.679195
0.687503
0.695734
0.703981
0.712348
0.720951
0.729924
0.739421
0.749622
0.760738
0.773024
0.786791
0.802423
0.820408
0.841368
0.866113
0.895705
0.931547
0.975481
-0.9169
-0.753301
-0.59614
-0.447716
-0.310576
-0.186818
-0.0775092
0.0174904
0.0992918
0.169541
0.23002
0.282388
0.328068
0.368216
0.403748
0.435377
0.463652
0.489002
0.51177
0.532245
0.550676
0.567298
0.582328
0.595979
0.608452
0.619938
0.630613
0.640637
0.650153
0.659283
0.668135
0.676799
0.685359
0.693895
0.70249
0.711235
0.720238
0.729622
0.739536
0.750156
0.761691
0.774393
0.788566
0.804581
0.8229
0.844105
0.868936
0.898351
0.933597
0.97631
-0.921638
-0.767587
-0.619592
-0.479203
-0.348148
-0.227975
-0.119694
-0.0235777
0.0608272
0.134512
0.198757
0.254905
0.304209
0.347744
0.386383
0.42081
0.451549
0.479014
0.503543
0.525435
0.544967
0.562411
0.578032
0.592086
0.604818
0.616458
0.627217
0.637287
0.64684
0.656027
0.664977
0.6738
0.682592
0.691435
0.700408
0.709593
0.719084
0.728991
0.739451
0.750631
0.762733
0.775999
0.79072
0.807249
0.826013
0.847535
0.87247
0.901649
0.93614
0.977333
-0.926931
-0.783438
-0.645511
-0.514113
-0.390339
-0.275232
-0.16958
-0.0737625
0.0122923
0.0890592
0.157297
0.21791
0.271819
0.319863
0.362753
0.401055
0.435218
0.465613
0.49257
0.516413
0.537468
0.556065
0.572532
0.587185
0.60032
0.612211
0.623111
0.633245
0.642821
0.652022
0.661012
0.669932
0.678903
0.688024
0.697382
0.707056
0.717126
0.727686
0.738854
0.750776
0.763638
0.777663
0.79312
0.810328
0.829664
0.85158
0.87663
0.905506
0.939087
0.978509
-0.932451
-0.799866
-0.672253
-0.550148
-0.434211
-0.32511
-0.223386
-0.129356
-0.0430667
0.0356907
0.107316
0.172315
0.231215
0.284494
0.332551
0.3757
0.41421
0.448351
0.478425
0.504781
0.527809
0.547918
0.565512
0.580979
0.594677
0.606929
0.618029
0.628244
0.637816
0.646969
0.655907
0.664816
0.673858
0.68317
0.692863
0.703028
0.71374
0.725076
0.737127
0.75001
0.763875
0.778914
0.795353
0.813457
0.833536
0.855954
0.881153
0.909688
0.94226
0.979767
-0.937972
-0.816192
-0.698698
-0.585737
-0.477699
-0.37501
-0.278025
-0.186951
-0.101816
-0.022478
0.0513165
0.119854
0.183366
0.241971
0.29566
0.344354
0.387999
0.426653
0.46053
0.489986
0.515474
0.53749
0.556528
0.573056
0.587497
0.600232
0.611598
0.621902
0.631427
0.640436
0.649181
0.657903
0.666824
0.676139
0.686012
0.696568
0.707897
0.720066
0.733141
0.747198
0.762343
0.778709
0.796456
0.815769
0.836863
0.859994
0.885487
0.913764
0.945373
0.981
-0.943361
-0.832025
-0.724213
-0.619998
-0.519626
-0.423386
-0.331519
-0.244144
-0.161234
-0.0826241
-0.00806745
0.0626815
0.12975
0.193042
0.252198
0.306683
0.355979
0.399783
0.438112
0.471265
0.499736
0.5241
0.544943
0.562814
0.578209
0.591564
0.603265
0.613658
0.623063
0.631786
0.640129
0.648395
0.65688
0.665865
0.675597
0.686271
0.698022
0.710936
0.725063
0.740447
0.757138
0.775195
0.794685
0.815678
0.838259
0.862544
0.888718
0.917071
0.948013
0.982066
-0.948561
-0.847208
-0.74855
-0.652592
-0.559525
-0.469584
-0.382946
-0.299678
-0.219711
-0.142845
-0.0687908
0.00274935
0.071951
0.138706
0.202497
0.262426
0.317466
0.366816
0.410138
0.447567
0.479567
0.506765
0.529821
0.549362
0.565952
0.580084
0.59219
0.602654
0.61183
0.620063
0.627705
0.635122
0.642705
0.650847
0.65992
0.67024
0.682041
0.695463
0.710571
0.727384
0.745889
0.766056
0.787833
0.811148
0.835922
0.862093
0.889668
0.918775
0.949686
0.982799
-0.953572
-0.861744
-0.771727
-0.683545
-0.597411
-0.513552
-0.432127
-0.353179
-0.276618
-0.202223
-0.129674
-0.0586066
0.0112621
0.0799522
0.147009
0.211406
0.271727
0.326627
0.375268
0.417461
0.453527
0.484069
0.509785
0.531361
0.549416
0.564495
0.577071
0.58756
0.596346
0.603805
0.610336
0.616383
0.62245
0.629096
0.636892
0.646355
0.657879
0.67169
0.687856
0.706335
0.727017
0.749758
0.774379
0.800674
0.828403
0.857324
0.887236
0.91806
0.949897
0.983035
-0.958421
-0.875733
-0.793917
-0.713098
-0.633563
-0.555578
-0.479307
-0.404792
-0.331943
-0.260541
-0.190259
-0.120698
-0.0514815
0.0175775
0.0862301
0.153573
0.218068
0.277958
0.331848
0.379063
0.419622
0.453984
0.482809
0.506795
0.526596
0.542789
0.555877
0.566302
0.574468
0.580782
0.585699
0.589772
0.593692
0.598288
0.604451
0.612983
0.624434
0.639034
0.656746
0.677381
0.700693
0.726425
0.754306
0.784039
0.815287
0.847667
0.880797
0.914372
0.948275
0.982645
-0.963144
-0.889308
-0.81536
-0.741582
-0.668383
-0.596095
-0.524915
-0.4549
-0.385978
-0.317953
-0.250521
-0.183288
-0.115835
-0.0478477
0.0206568
0.0890601
0.156
0.219595
0.27802
0.330048
0.375224
0.413702
0.445981
0.472691
0.49447
0.511899
0.525491
0.5357
0.542954
0.54771
0.550532
0.552184
0.553696
0.556327
0.561366
0.569816
0.582187
0.598512
0.618534
0.641893
0.668233
0.697237
0.728599
0.761999
0.797062
0.833341
0.870337
0.907558
0.944655
0.981565
-0.967765
-0.902581
-0.836288
-0.76934
-0.702292
-0.635572
-0.56943
-0.503958
-0.439118
-0.374757
-0.310619
-0.246358
-0.181572
-0.115896
-0.0491767
0.0182764
0.0854634
0.150714
0.212079
0.2679
0.317178
0.359604
0.395357
0.424878
0.448703
0.467366
0.481367
0.491173
0.497267
0.500235
0.500894
0.500411
0.50033
0.502363
0.507982
0.518052
0.532767
0.551861
0.574888
0.6014
0.63102
0.663439
0.698375
0.73553
0.774546
0.814972
0.856264
0.89782
0.9391
0.979801
-0.97228
-0.915603
-0.856866
-0.796655
-0.735667
-0.674441
-0.613305
-0.552405
-0.491754
-0.431263
-0.37075
-0.30995
-0.248536
-0.186174
-0.122643
-0.058033
0.00703995
0.0713246
0.133101
0.190595
0.242406
0.287721
0.326271
0.35817
0.383748
0.403432
0.417693
0.427051
0.432151
0.433879
0.433504
0.432725
0.433493
0.437592
0.446203
0.459746
0.478057
0.500691
0.527159
0.557052
0.590056
0.625933
0.664467
0.705417
0.748473
0.793223
0.839129
0.885553
0.931829
0.977423
-0.976655
-0.928335
-0.877144
-0.823702
-0.768792
-0.713064
-0.656935
-0.600629
-0.544235
-0.487746
-0.431078
-0.374082
-0.316549
-0.258247
-0.198993
-0.138786
-0.0779728
-0.0173781
0.0417122
0.0977603
0.149298
0.195195
0.234776
0.267785
0.294287
0.31458
0.329145
0.338663
0.344091
0.346747
0.348334
0.35078
0.355896
0.364992
0.378692
0.397027
0.41968
0.44623
0.476299
0.509612
0.545983
0.585287
0.627404
0.672177
0.719367
0.768619
0.819437
0.871187
0.923133
0.974532
-0.980831
-0.94065
-0.897033
-0.850497
-0.801812
-0.751685
-0.700624
-0.648952
-0.596853
-0.54443
-0.491726
-0.438734
-0.385399
-0.33164
-0.277387
-0.222665
-0.1677
-0.113019
-0.0594826
-0.00821097
0.0395906
0.0828392
0.120734
0.152833
0.179062
0.199687
0.215301
0.226816
0.235469
0.242766
0.250341
0.25972
0.272077
0.288094
0.30799
0.331666
0.358876
0.389372
0.422972
0.459589
0.499204
0.541836
0.587491
0.636115
0.687555
0.741525
0.797578
0.855099
0.913297
0.971234
-0.984742
-0.952363
-0.916307
-0.876876
-0.83468
-0.790386
-0.744555
-0.697603
-0.649838
-0.601501
-0.55279
-0.503871
-0.454873
-0.405888
-0.356999
-0.308314
-0.26004
-0.212535
-0.166343
-0.12217
-0.0807949
-0.0429447
-0.00916554
0.0202775
0.0454545
0.0667795
0.08498
0.101031
0.116056
0.131196
0.147478
0.165701
0.186389
0.209803
0.236002
0.264937
0.296532
0.330757
0.36765
0.407333
0.449979
0.495779
0.544891
0.597391
0.653224
0.712174
0.773834
0.837583
0.902559
0.967623
-0.988334
-0.963289
-0.93467
-0.902508
-0.867133
-0.829036
-0.788732
-0.746694
-0.703354
-0.659117
-0.614374
-0.569498
-0.524824
-0.480633
-0.437152
-0.394577
-0.353103
-0.312966
-0.27446
-0.237923
-0.203684
-0.171993
-0.142935
-0.116373
-0.0919315
-0.0690268
-0.046945
-0.0249472
-0.0023709
0.0213003
0.0464135
0.0731653
0.101643
0.131871
0.163852
0.197608
0.233211
0.270815
0.310663
0.353087
0.398476
0.447226
0.499685
0.556083
0.61648
0.680722
0.74841
0.818869
0.891111
0.963775
-0.991582
-0.973304
-0.951855
-0.927004
-0.898749
-0.867285
-0.832949
-0.796176
-0.757475
-0.71742
-0.676627
-0.635714
-0.595252
-0.555715
-0.517452
-0.480692
-0.44557
-0.412159
-0.380494
-0.35057
-0.322317
-0.295559
-0.269987
-0.245151
-0.220488
-0.195398
-0.169332
-0.141876
-0.1128
-0.082058
-0.0497437
-0.0160264
0.0189129
0.0549292
0.0919469
0.129983
0.169171
0.209777
0.25221
0.29701
0.344806
0.396249
0.451921
0.512246
0.57741
0.647302
0.721478
0.79914
0.879102
0.95975
-0.994504
-0.982411
-0.967752
-0.950092
-0.929117
-0.904682
-0.876836
-0.845842
-0.812183
-0.776549
-0.739779
-0.702773
-0.666372
-0.631255
-0.597863
-0.566398
-0.536852
-0.509072
-0.482812
-0.457763
-0.433559
-0.409774
-0.385916
-0.361445
-0.335818
-0.308547
-0.279268
-0.247787
-0.214099
-0.178367
-0.140875
-0.101964
-0.0619777
-0.021211
0.0201289
0.0619623
0.104377
0.147667
0.192354
0.239177
0.28904
0.342904
0.401655
0.465955
0.536124
0.612062
0.693212
0.778559
0.866646
0.955587
-0.997166
-0.990763
-0.98251
-0.971812
-0.95811
-0.940954
-0.920073
-0.895458
-0.867429
-0.836669
-0.804175
-0.771123
-0.738659
-0.707687
-0.678735
-0.651922
-0.627041
-0.603675
-0.581315
-0.559431
-0.537509
-0.515051
-0.491575
-0.466622
-0.439772
-0.41068
-0.379112
-0.344975
-0.308321
-0.269343
-0.228348
-0.185718
-0.141873
-0.0972312
-0.0521558
-0.00689219
0.03851
0.0842799
0.130988
0.179558
0.231199
0.287255
0.348987
0.417346
0.492794
0.57519
0.663782
0.757255
0.853818
0.951309
-0.999686
-0.998685
-0.996586
-0.992645
-0.986119
-0.976328
-0.962735
-0.945041
-0.923306
-0.898056
-0.870302
-0.841414
-0.812836
-0.785734
-0.760734
-0.73787
-0.716718
-0.696616
-0.676856
-0.656803
-0.635922
-0.613772
-0.589981
-0.564221
-0.536211
-0.50572
-0.472592
-0.436758
-0.398253
-0.357218
-0.313896
-0.268631
-0.22185
-0.17404
-0.125705
-0.0772842
-0.0290274
0.019147
0.0677869
0.117968
0.171228
0.229354
0.294057
0.366622
0.447639
0.536876
0.633313
0.735272
0.84061
0.946906
-1.00224
-1.00669
-1.01077
-1.01356
-1.01416
-1.01173
-1.00557
-0.995159
-0.980284
-0.961214
-0.9388
-0.914442
-0.889797
-0.866298
-0.844722
-0.825058
-0.806714
-0.788852
-0.770665
-0.75151
-0.730921
-0.708567
-0.684199
-0.657613
-0.62863
-0.597098
-0.5629
-0.525965
-0.486289
-0.443939
-0.399074
-0.351953
-0.302956
-0.252584
-0.201431
-0.150108
-0.0990866
-0.0484888
0.00214343
0.0539905
0.108914
0.169178
0.236984
0.313969
0.400828
0.497196
0.601749
0.712457
0.826859
0.942307
-1.00508
-1.01552
-1.02622
-1.036
-1.04383
-1.04878
-1.05006
-1.04705
-1.03935
-1.02695
-1.01043
-0.991026
-0.970431
-0.950285
-0.931562
-0.914308
-0.897871
-0.88135
-0.863938
-0.845058
-0.824343
-0.80157
-0.776588
-0.749277
-0.719524
-0.687221
-0.652271
-0.614597
-0.574157
-0.530958
-0.485076
-0.436682
-0.386076
-0.333719
-0.280233
-0.22634
-0.172703
-0.119653
-0.0668625
-0.0130988
0.043782
0.106495
0.177709
0.259376
0.352268
0.455877
0.568634
0.688266
0.812114
0.937334
-1.00862
-1.02631
-1.0446
-1.06198
-1.07731
-1.08964
-1.09825
-1.1025
-1.10193
-1.09633
-1.086
-1.07185
-1.0554
-1.03835
-1.02189
-1.00624
-0.990847
-0.974885
-0.957633
-0.93861
-0.917542
-0.894282
-0.868738
-0.840833
-0.810488
-0.777615
-0.742127
-0.703944
-0.662999
-0.619259
-0.572739
-0.523534
-0.471862
-0.41811
-0.362867
-0.306887
-0.25094
-0.195512
-0.140393
-0.084335
-0.0249897
0.0407009
0.115754
0.202341
0.301276
0.411981
0.532815
0.661509
0.795436
0.931616
-1.01357
-1.04083
-1.06834
-1.09422
-1.11734
-1.13697
-1.15255
-1.16359
-1.16968
-1.17053
-1.16621
-1.15726
-1.14489
-1.13065
-1.11588
-1.10108
-1.08597
-1.06993
-1.05238
-1.03295
-1.01142
-0.987675
-0.96165
-0.933277
-0.902486
-0.869197
-0.833327
-0.794794
-0.753524
-0.709461
-0.662588
-0.612951
-0.560699
-0.506145
-0.449802
-0.392374
-0.334631
-0.277097
-0.219605
-0.160896
-0.0985231
-0.0292709
0.0500169
0.141583
0.246273
0.363592
0.492128
0.630018
0.775083
0.924426
-1.02143
-1.06227
-1.10117
-1.13637
-1.16728
-1.19372
-1.2155
-1.23241
-1.24418
-1.25057
-1.25148
-1.24718
-1.23848
-1.22666
-1.21307
-1.19854
-1.18315
-1.1666
-1.14848
-1.12851
-1.1065
-1.08233
-1.05592
-1.0272
-0.996088
-0.962508
-0.926376
-0.887614
-0.846148
-0.801921
-0.754905
-0.705126
-0.652699
-0.597875
-0.541081
-0.482919
-0.424045
-0.364886
-0.305204
-0.243706
-0.177955
-0.104805
-0.0212089
0.0749996
0.184721
0.307745
0.443253
0.590317
0.747965
0.914238
-1.03616
-1.09672
-1.1489
-1.19331
-1.23108
-1.26302
-1.28954
-1.31078
-1.32667
-1.33705
-1.34178
-1.34096
-1.33509
-1.32513
-1.31234
-1.29777
-1.28188
-1.26469
-1.24597
-1.2255
-1.20308
-1.17859
-1.15191
-1.12295
-1.09163
-1.05786
-1.02157
-0.982673
-0.941105
-0.896816
-0.849788
-0.800048
-0.747707
-0.692982
-0.636233
-0.577936
-0.518572
-0.458368
-0.396921
-0.332883
-0.263925
-0.187156
-0.0998158
9.30736e-05
0.113564
0.240823
0.381911
0.537352
0.70858
0.897265
-1.0707
-1.15623
-1.22011
-1.27097
-1.31286
-1.34777
-1.37667
-1.39998
-1.41778
-1.42999
-1.43653
-1.43743
-1.43305
-1.42419
-1.41196
-1.39743
-1.38129
-1.36373
-1.34467
-1.32391
-1.30128
-1.27661
-1.2498
-1.22073
-1.18931
-1.15546
-1.11909
-1.08013
-1.03852
-0.994217
-0.947216
-0.897555
-0.845351
-0.790813
-0.734258
-0.676064
-0.616558
-0.555771
-0.493147
-0.427305
-0.356073
-0.276849
-0.187169
-0.0851863
0.0301879
0.159569
0.303752
0.464701
0.647116
0.861715
)
;

boundaryField
{
    left
    {
        type            fixedValue;
        value           uniform -1;
    }
    right
    {
        type            fixedValue;
        value           uniform 1;
    }
    bottom
    {
        type            zeroGradient;
    }
    top
    {
        type            fixedGradient;
        gradient        uniform -5;
    }
    frontAndBack
    {
        type            empty;
    }
}


// ************************************************************************* //
