/*--------------------------------*- C++ -*----------------------------------*\
  =========                 |
  \\      /  F ield         | OpenFOAM: The Open Source CFD Toolbox
   \\    /   O peration     | Website:  https://openfoam.org
    \\  /    A nd           | Version:  8
     \\/     M anipulation  |
\*---------------------------------------------------------------------------*/
FoamFile
{
    version     2.0;
    format      ascii;
    class       volScalarField;
    location    "1";
    object      v;
}
// * * * * * * * * * * * * * * * * * * * * * * * * * * * * * * * * * * * * * //

dimensions      [0 0 0 0 0 0 0];

internalField   nonuniform List<scalar> 
2500
(
-0.0117877
-0.0116353
-0.0112988
-0.0107658
-0.0100383
-0.0091325
-0.00807813
-0.00691858
-0.00570775
-0.00450376
-0.00335972
-0.00231447
-0.00138684
-0.000576096
0.000132208
0.000758092
0.00132014
0.0018313
0.00229761
0.00271891
0.00309061
0.00340579
0.00365713
0.00383849
0.00394593
0.00397828
0.00393724
0.00382714
0.00365444
0.00342703
0.00315358
0.00284272
0.00250226
0.00213835
0.00175451
0.00135061
0.000922069
0.000459698
-4.90105e-05
-0.000616602
-0.00125068
-0.0019488
-0.00269565
-0.00346383
-0.00421811
-0.00492087
-0.00553684
-0.00603552
-0.00639131
-0.00658138
-0.0163101
-0.0161923
-0.0159309
-0.0155066
-0.0149089
-0.0141334
-0.0131802
-0.012052
-0.0107522
-0.00928237
-0.00764136
-0.00582552
-0.00383263
-0.00166849
0.000645905
0.00306978
0.00554265
0.00798872
0.0103241
0.012465
0.0143347
0.0158703
0.0170261
0.0177766
0.018116
0.0180571
0.0176278
0.0168672
0.0158223
0.0145433
0.0130814
0.0114862
0.00980448
0.00807968
0.00635125
0.00465408
0.00301721
0.00146215
1.52369e-06
-0.00136071
-0.00262668
-0.00380017
-0.00488229
-0.00586909
-0.00675181
-0.00751872
-0.00815723
-0.00865506
-0.00900002
-0.00917876
-0.0211155
-0.0209896
-0.0207291
-0.0203171
-0.0197367
-0.0189699
-0.017996
-0.0167891
-0.0153162
-0.0135368
-0.011404
-0.00887067
-0.00590018
-0.00248133
0.00135525
0.00552612
0.00989468
0.0142835
0.0184959
0.0223399
0.0256497
0.0282992
0.0302097
0.0313494
0.0317297
0.0313972
0.0304246
0.0289008
0.0269224
0.0245866
0.0219863
0.0192064
0.0163232
0.0134042
0.010509
0.00769017
0.00499383
0.00245903
0.000116348
-0.00201357
-0.00392055
-0.00560371
-0.00706872
-0.00832465
-0.00938139
-0.0102482
-0.0109329
-0.0114415
-0.0117775
-0.0119424
-0.0262927
-0.0261201
-0.0257919
-0.0253019
-0.0246335
-0.0237609
-0.0226488
-0.0212509
-0.0195081
-0.0173487
-0.0146913
-0.0114529
-0.00756313
-0.00298609
0.00225395
0.00805059
0.0142069
0.0204489
0.0264596
0.0319248
0.0365752
0.0402154
0.042736
0.0441101
0.0443815
0.0436465
0.0420356
0.0396963
0.0367792
0.0334282
0.0297736
0.0259291
0.0219917
0.018043
0.0141518
0.0103769
0.00676988
0.00337655
0.000237152
-0.00261488
-0.00515511
-0.0073703
-0.00925933
-0.0108323
-0.0121081
-0.0131105
-0.0138652
-0.0143967
-0.0147275
-0.0148787
-0.031945
-0.0316845
-0.0312183
-0.0305592
-0.0296971
-0.0286038
-0.0272347
-0.0255288
-0.0234086
-0.0207813
-0.0175423
-0.0135844
-0.00881406
-0.00317569
0.00331662
0.0105479
0.0182833
0.0261745
0.033799
0.0407235
0.0465708
0.0510704
0.0540803
0.0555824
0.0556598
0.0544663
0.0521963
0.0490586
0.0452573
0.0409791
0.0363865
0.0316154
0.0267766
0.0219589
0.0172333
0.0126582
0.00828353
0.00415452
0.000313835
-0.00319811
-0.0063451
-0.00909888
-0.0114437
-0.0133794
-0.0149222
-0.0161019
-0.0169569
-0.0175299
-0.0178644
-0.0180044
-0.0381851
-0.0377892
-0.0371074
-0.0361807
-0.0350124
-0.033577
-0.0318251
-0.0296867
-0.0270725
-0.0238775
-0.0199857
-0.0152798
-0.00965815
-0.00305878
0.00450792
0.0129242
0.0219381
0.0311608
0.0401
0.0482301
0.0550781
0.0602976
0.0637076
0.0652916
0.0651671
0.0635424
0.0606727
0.0568247
0.0522515
0.0471776
0.0417922
0.0362481
0.0306652
0.0251352
0.0197282
0.0144984
0.0094909
0.0047461
0.000304092
-0.00379336
-0.00750311
-0.010784
-0.0136027
-0.0159413
-0.0178019
-0.0192089
-0.0202057
-0.0208491
-0.0212034
-0.0213381
-0.0451248
-0.0445389
-0.0435532
-0.0422486
-0.0406497
-0.0387391
-0.0364682
-0.0337629
-0.0305295
-0.0266597
-0.0220379
-0.0165516
-0.0101075
-0.00265369
0.00579096
0.0151042
0.0250322
0.0351799
0.0450334
0.054023
0.0616133
0.0673939
0.0711378
0.0728132
0.0725534
0.0706047
0.0672706
0.0628657
0.0576848
0.0519843
0.0459753
0.0398245
0.0336581
0.0275694
0.021626
0.0158779
0.0103638
0.00511786
0.000174812
-0.00442642
-0.00864097
-0.0124195
-0.0157135
-0.0184841
-0.0207116
-0.0224033
-0.0235958
-0.0243515
-0.0247521
-0.0248927
-0.0528554
-0.0520194
-0.0506325
-0.0488275
-0.0466595
-0.044127
-0.0411878
-0.0377709
-0.0337858
-0.0291309
-0.023703
-0.0174084
-0.0101774
-0.00198379
0.0071329
0.0170411
0.0274939
0.0381176
0.048424
0.0578568
0.0658694
0.0720165
0.0760269
0.0778342
0.0775582
0.0754545
0.0718513
0.0670952
0.0615114
0.0553819
0.0489365
0.0423537
0.0357661
0.0292687
0.0229279
0.0167897
0.0108876
0.00524951
-9.63304e-05
-0.00511623
-0.00976776
-0.0139989
-0.0177511
-0.020967
-0.023602
-0.0256373
-0.0270897
-0.0280143
-0.0285007
-0.0286657
-0.0614155
-0.0602714
-0.0583836
-0.0559488
-0.0530628
-0.0497491
-0.0459809
-0.041699
-0.0368259
-0.0312775
-0.0249747
-0.0178552
-0.00988541
-0.00107528
0.00850665
0.0187164
0.0293195
0.0399824
0.0502778
0.0597135
0.0677876
0.0740634
0.0782433
0.0802153
0.0800561
0.0779939
0.0743501
0.069479
0.0637218
0.0573781
0.0506932
0.043857
0.0370096
0.0302498
0.0236444
0.0172379
0.0110599
0.00513318
-0.000520018
-0.00587238
-0.0108867
-0.0155129
-0.0196885
-0.0233434
-0.0264106
-0.0288412
-0.0306213
-0.0317833
-0.0324093
-0.0326269
-0.0707478
-0.0692521
-0.0667769
-0.0635886
-0.0598348
-0.0555755
-0.0508118
-0.0455086
-0.0396132
-0.0330713
-0.0258395
-0.0178962
-0.00925191
4.28869e-05
0.00988936
0.0201331
0.0305578
0.040881
0.0507567
0.0597896
0.067566
0.0737035
0.0779099
0.0800347
0.0800931
0.0782532
0.0747931
0.0700459
0.064349
0.0580089
0.0512819
0.044369
0.0374192
0.0305377
0.0237947
0.0172355
0.0108882
0.00477225
-0.00109543
-0.00669377
-0.0119922
-0.016946
-0.0214943
-0.0255611
-0.0290633
-0.0319239
-0.0340926
-0.0355646
-0.0363953
-0.036704
-0.0806481
-0.0787893
-0.075676
-0.0716385
-0.0668841
-0.0615245
-0.0556052
-0.0491315
-0.0420915
-0.0344736
-0.0262804
-0.0175379
-0.00830225
0.00133781
0.0112594
0.0213056
0.031286
0.0409759
0.0501181
0.0584261
0.0655969
0.0713347
0.0753876
0.0775904
0.0778992
0.0764036
0.0733085
0.0688953
0.0634736
0.0573418
0.0507599
0.0439381
0.0370355
0.0301658
0.0234057
0.0168038
0.0103893
0.00417985
-0.00181122
-0.00756866
-0.013069
-0.0182748
-0.0231309
-0.027562
-0.0314762
-0.0347755
-0.0373735
-0.0392197
-0.0403233
-0.040769
-0.0907232
-0.0885384
-0.0847979
-0.0798718
-0.0740282
-0.0674462
-0.0602366
-0.0524671
-0.0441855
-0.0354376
-0.026281
-0.016792
-0.00706851
0.00277147
0.0125934
0.0222506
0.0315881
0.0404434
0.0486464
0.0560163
0.0623616
0.0674849
0.0711988
0.0733526
0.0738651
0.0727505
0.0701269
0.0661993
0.0612255
0.0554768
0.0492061
0.0426275
0.0359095
0.0291757
0.0225113
0.0159709
0.0095868
0.00337718
-0.00264711
-0.0084756
-0.0140917
-0.0194665
-0.0245527
-0.0292808
-0.0335577
-0.0372722
-0.0403086
-0.0425688
-0.0440018
-0.0446305
-0.100382
-0.0979622
-0.0936856
-0.0879157
-0.0809703
-0.0731065
-0.0645242
-0.0553795
-0.0458024
-0.0359123
-0.025829
-0.0156781
-0.00559056
0.00430034
0.0138647
0.0229811
0.0315399
0.0394433
0.0466017
0.0529274
0.0583267
0.0626945
0.0659154
0.067875
0.0684827
0.0677003
0.065565
0.0621964
0.0577817
0.0525461
0.0467205
0.0405144
0.0341019
0.0276158
0.0211511
0.0147701
0.0085102
0.0023916
-0.00357579
-0.00938529
-0.0150267
-0.0204796
-0.0257063
-0.0306459
-0.0352098
-0.0392819
-0.0427259
-0.0454017
-0.0471926
-0.0480379
-0.108879
-0.106357
-0.101713
-0.0952437
-0.0872866
-0.0781772
-0.0682236
-0.0576971
-0.0468347
-0.0358459
-0.0249191
-0.014225
-0.00391598
0.00587616
0.0150435
0.0235042
0.0312022
0.038104
0.044192
0.0494547
0.0538766
0.0574275
0.0600569
0.0616951
0.0622651
0.0617048
0.0599941
0.0571754
0.0533593
0.0487107
0.0434229
0.0376893
0.0316821
0.0255409
0.0193695
0.0132389
0.00719281
0.00125481
-0.00456492
-0.0102625
-0.0158336
-0.0212657
-0.0265313
-0.0315799
-0.036331
-0.0406701
-0.0444493
-0.0474957
-0.0496313
-0.0507021
-0.115422
-0.112936
-0.10814
-0.101205
-0.0924402
-0.0822416
-0.0710316
-0.0592171
-0.0471647
-0.0351901
-0.0235555
-0.0124714
-0.00209893
0.00744769
0.016098
0.023821
0.030619
0.0365199
0.0415672
0.0458091
0.0492874
0.0520267
0.0540266
0.0552583
0.0556698
0.0551991
0.0537967
0.0514505
0.0482031
0.0441548
0.0394502
0.0342539
0.0287272
0.0230105
0.0172142
0.0114172
0.00567026
1.01721e-06
-0.00557912
-0.0110683
-0.0164672
-0.0217712
-0.0269627
-0.032002
-0.036819
-0.0413051
-0.0453084
-0.0486342
-0.0510542
-0.0523268
-0.119301
-0.116962
-0.112228
-0.105105
-0.0958327
-0.084826
-0.0726057
-0.0597183
-0.0466735
-0.0339051
-0.0217537
-0.010465
-0.000198106
0.00896314
0.0169967
0.0239287
0.0298203
0.0347548
0.0388257
0.0421251
0.0447339
0.0467126
0.0480945
0.0488827
0.0490502
0.0485485
0.0473222
0.0453303
0.0425675
0.0390775
0.0349528
0.0303205
0.0253212
0.0200887
0.0147354
0.0093466
0.0039792
-0.00133456
-0.00658165
-0.0117618
-0.0168803
-0.02194
-0.0269328
-0.0318304
-0.0365736
-0.0410628
-0.0451479
-0.0486229
-0.051225
-0.0526431
-0.12002
-0.117886
-0.113372
-0.106333
-0.0969003
-0.0854651
-0.0726053
-0.0589856
-0.0452544
-0.0319664
-0.0195426
-0.00826168
0.00172554
0.0103725
0.0177101
0.0238225
0.0288253
0.0328492
0.036026
0.0384781
0.0403105
0.0416046
0.0424138
0.0427613
0.0426408
0.0420202
0.0408518
0.0390872
0.0366955
0.0336806
0.0300898
0.0260102
0.0215548
0.0168435
0.0119857
0.00706936
0.00215642
-0.00271683
-0.00753584
-0.0123018
-0.0170247
-0.0217148
-0.0263738
-0.0309844
-0.0354996
-0.0398302
-0.043833
-0.0473004
-0.0499523
-0.0514351
-0.117367
-0.115442
-0.111235
-0.10449
-0.0952344
-0.0837951
-0.0707544
-0.0568477
-0.0428327
-0.0293728
-0.0169662
-0.00592415
0.0036109
0.0116292
0.0182124
0.023497
0.0276457
0.0308263
0.0331979
0.0349018
0.0360556
0.0367506
0.0370495
0.0369868
0.0365694
0.0357799
0.034583
0.0329349
0.0307978
0.0281546
0.0250209
0.0214497
0.0175252
0.0133484
0.00902061
0.00462919
0.000238788
-0.0041114
-0.00840589
-0.012648
-0.016853
-0.0210392
-0.025219
-0.029387
-0.033509
-0.0375083
-0.0412531
-0.044543
-0.0470981
-0.0485522
-0.111421
-0.109677
-0.105801
-0.099487
-0.090687
-0.0796498
-0.0669132
-0.0532214
-0.0393888
-0.0261558
-0.0140852
-0.00352072
0.00539837
0.0126913
0.0184812
0.022947
0.0262875
0.028697
0.0303518
0.0314026
0.0319717
0.0321521
0.0320091
0.0315814
0.0308833
0.0299077
0.0286307
0.0270187
0.0250372
0.0226634
0.0198967
0.016767
0.0133348
0.0096823
0.00590022
0.00207232
-0.00173607
-0.0054843
-0.00915716
-0.0127614
-0.0163192
-0.0198589
-0.023405
-0.0269663
-0.030523
-0.034014
-0.0373228
-0.0402653
-0.0425778
-0.04391
-0.102513
-0.100914
-0.0973607
-0.0915569
-0.0834168
-0.0731214
-0.0611346
-0.0481516
-0.0349796
-0.0223876
-0.0109783
-0.00112398
0.00703103
0.0135215
0.0184977
0.0221671
0.0247521
0.0264632
0.0274847
0.0279698
0.0280393
0.0277836
0.0272657
0.026524
0.0255758
0.0244203
0.0230424
0.0214181
0.0195214
0.0173322
0.0148463
0.0120829
0.00908785
0.00592987
0.00269038
-0.000550651
-0.00372814
-0.00680103
-0.00975587
-0.0126049
-0.0153799
-0.0181224
-0.0208729
-0.0236573
-0.0264743
-0.0292815
-0.0319835
-0.0344198
-0.036357
-0.0374839
-0.0911481
-0.0896738
-0.0864379
-0.0811938
-0.0738555
-0.0645559
-0.0536775
-0.041828
-0.0297496
-0.0181847
-0.00774119
0.00119118
0.0084557
0.0140871
0.0182453
0.0211507
0.0230365
0.0241192
0.0245841
0.0245813
0.0242266
0.0236046
0.0227734
0.0217689
0.0206082
0.0192936
0.0178158
0.016159
0.0143053
0.0122419
0.00996781
0.00750134
0.00488376
0.00217838
-0.000537024
-0.00318303
-0.00569301
-0.00802508
-0.0101685
-0.0121433
-0.013995
-0.0157835
-0.0175705
-0.0194052
-0.0213097
-0.0232659
-0.0252046
-0.0269963
-0.0284477
-0.0293028
-0.0779307
-0.0765829
-0.073682
-0.0690468
-0.0626125
-0.0544835
-0.0449672
-0.0345673
-0.0239232
-0.0137031
-0.00448199
0.00335087
0.00962457
0.01436
0.0177092
0.0198896
0.0211329
0.0216528
0.0216299
0.0212076
0.020494
0.0195666
0.0184775
0.0172583
0.0159246
0.0144793
0.0129172
0.0112279
0.00940075
0.00743045
0.00532268
0.00310042
0.000808088
-0.00148824
-0.00370673
-0.0057619
-0.00758048
-0.00911644
-0.0103609
-0.011344
-0.0121298
-0.0128035
-0.0134565
-0.0141694
-0.0149955
-0.0159475
-0.016988
-0.0180237
-0.0189074
-0.0194449
-0.0634927
-0.062297
-0.0597755
-0.0558097
-0.0503608
-0.0435152
-0.0355154
-0.0267621
-0.0177767
-0.00912395
-0.00131364
0.00528699
0.0104978
0.0143176
0.0168759
0.0183733
0.0190288
0.019046
0.0185961
0.0178134
0.0167972
0.0156171
0.0143187
0.012929
0.0114609
0.00991712
0.00829426
0.00658603
0.00478757
0.00290019
0.000936817
-0.00107235
-0.00307538
-0.00499751
-0.00674574
-0.00822076
-0.00933479
-0.010031
-0.0102986
-0.0101785
-0.00975794
-0.00915674
-0.00850695
-0.00793165
-0.00752557
-0.00734017
-0.00737497
-0.007576
-0.00784188
-0.00803826
-0.0484422
-0.0474405
-0.0453625
-0.0421356
-0.037739
-0.0322425
-0.0258322
-0.0188153
-0.0115977
-0.00463168
0.00165731
0.00694329
0.0110475
0.0139452
0.0157354
0.0165906
0.0167082
0.0162756
0.0154513
0.0143588
0.0130881
0.0117008
0.0102361
0.00871589
0.0071502
0.00554088
0.00388537
0.00218027
0.000425208
-0.00137267
-0.00319354
-0.00499936
-0.00672893
-0.00829569
-0.00959094
-0.0104951
-0.0108977
-0.0107222
-0.00994851
-0.00862546
-0.0068678
-0.00483914
-0.00272576
-0.000707769
0.00106614
0.00249675
0.00354282
0.00421972
0.0045883
0.00473456
-0.0333293
-0.0325704
-0.0310064
-0.0285858
-0.0252912
-0.0211708
-0.0163593
-0.0110828
-0.0056448
-0.000390948
0.00434185
0.008281
0.0112611
0.01324
0.0142841
0.0145322
0.0141538
0.0133155
0.0121605
0.0108005
0.00931603
0.00776079
0.00616744
0.00455321
0.00292487
0.00128288
-0.000374937
-0.00204984
-0.00373843
-0.00542838
-0.00709337
-0.0086875
-0.0101399
-0.0113513
-0.0121956
-0.0125297
-0.0122144
-0.0111447
-0.00928203
-0.00667643
-0.00347034
0.000120223
0.00384018
0.00743543
0.0106883
0.0134417
0.0156091
0.017171
0.0181587
0.0186289
-0.0186289
-0.0181587
-0.017171
-0.0156091
-0.0134417
-0.0106883
-0.00743543
-0.00384018
-0.000120223
0.00347034
0.00667643
0.00928203
0.0111447
0.0122144
0.0125297
0.0121956
0.0113513
0.0101399
0.0086875
0.00709337
0.00542838
0.00373843
0.00204984
0.000374937
-0.00128288
-0.00292487
-0.00455321
-0.00616744
-0.00776079
-0.00931603
-0.0108005
-0.0121605
-0.0133155
-0.0141538
-0.0145322
-0.0142841
-0.01324
-0.0112611
-0.008281
-0.00434185
0.000390948
0.0056448
0.0110828
0.0163593
0.0211708
0.0252912
0.0285858
0.0310064
0.0325704
0.0333293
-0.00473456
-0.0045883
-0.00421972
-0.00354282
-0.00249675
-0.00106614
0.000707769
0.00272576
0.00483914
0.0068678
0.00862546
0.00994851
0.0107222
0.0108977
0.0104951
0.00959094
0.00829569
0.00672893
0.00499936
0.00319354
0.00137267
-0.000425208
-0.00218027
-0.00388537
-0.00554088
-0.0071502
-0.00871589
-0.0102361
-0.0117008
-0.0130881
-0.0143588
-0.0154513
-0.0162756
-0.0167082
-0.0165906
-0.0157354
-0.0139452
-0.0110475
-0.00694329
-0.00165731
0.00463168
0.0115977
0.0188153
0.0258322
0.0322425
0.037739
0.0421356
0.0453625
0.0474405
0.0484422
0.00803826
0.00784188
0.007576
0.00737497
0.00734017
0.00752557
0.00793165
0.00850695
0.00915674
0.00975794
0.0101785
0.0102986
0.010031
0.00933479
0.00822076
0.00674574
0.00499751
0.00307538
0.00107235
-0.000936817
-0.00290019
-0.00478757
-0.00658603
-0.00829426
-0.00991712
-0.0114609
-0.012929
-0.0143187
-0.0156171
-0.0167972
-0.0178134
-0.0185961
-0.019046
-0.0190288
-0.0183733
-0.0168759
-0.0143176
-0.0104978
-0.00528699
0.00131364
0.00912395
0.0177767
0.0267621
0.0355154
0.0435152
0.0503608
0.0558097
0.0597755
0.062297
0.0634927
0.0194449
0.0189074
0.0180237
0.016988
0.0159475
0.0149955
0.0141694
0.0134565
0.0128035
0.0121298
0.011344
0.0103609
0.00911644
0.00758048
0.0057619
0.00370673
0.00148824
-0.000808088
-0.00310042
-0.00532268
-0.00743045
-0.00940075
-0.0112279
-0.0129172
-0.0144793
-0.0159246
-0.0172583
-0.0184775
-0.0195666
-0.020494
-0.0212076
-0.0216299
-0.0216528
-0.0211329
-0.0198896
-0.0177092
-0.01436
-0.00962457
-0.00335087
0.00448199
0.0137031
0.0239232
0.0345673
0.0449672
0.0544835
0.0626125
0.0690468
0.073682
0.0765829
0.0779307
0.0293028
0.0284477
0.0269963
0.0252046
0.0232659
0.0213097
0.0194052
0.0175705
0.0157835
0.013995
0.0121433
0.0101685
0.00802508
0.00569301
0.00318303
0.000537024
-0.00217838
-0.00488376
-0.00750134
-0.00996781
-0.0122419
-0.0143053
-0.016159
-0.0178158
-0.0192936
-0.0206082
-0.0217689
-0.0227734
-0.0236046
-0.0242266
-0.0245813
-0.0245841
-0.0241192
-0.0230365
-0.0211507
-0.0182453
-0.0140871
-0.0084557
-0.00119118
0.00774119
0.0181847
0.0297496
0.041828
0.0536775
0.0645559
0.0738555
0.0811938
0.0864379
0.0896738
0.0911481
0.0374839
0.036357
0.0344198
0.0319835
0.0292815
0.0264743
0.0236573
0.0208729
0.0181224
0.0153799
0.0126049
0.00975587
0.00680103
0.00372814
0.000550651
-0.00269038
-0.00592987
-0.00908785
-0.0120829
-0.0148463
-0.0173322
-0.0195214
-0.0214181
-0.0230424
-0.0244203
-0.0255758
-0.026524
-0.0272657
-0.0277836
-0.0280393
-0.0279698
-0.0274847
-0.0264632
-0.0247521
-0.0221671
-0.0184977
-0.0135215
-0.00703103
0.00112398
0.0109783
0.0223876
0.0349796
0.0481516
0.0611346
0.0731214
0.0834168
0.0915569
0.0973607
0.100914
0.102513
0.04391
0.0425778
0.0402653
0.0373228
0.034014
0.030523
0.0269663
0.023405
0.0198589
0.0163192
0.0127614
0.00915716
0.0054843
0.00173607
-0.00207232
-0.00590022
-0.0096823
-0.0133348
-0.016767
-0.0198967
-0.0226634
-0.0250372
-0.0270187
-0.0286307
-0.0299077
-0.0308833
-0.0315814
-0.0320091
-0.0321521
-0.0319717
-0.0314026
-0.0303518
-0.028697
-0.0262875
-0.022947
-0.0184812
-0.0126913
-0.00539837
0.00352072
0.0140852
0.0261558
0.0393888
0.0532214
0.0669132
0.0796498
0.090687
0.099487
0.105801
0.109677
0.111421
0.0485522
0.0470981
0.044543
0.0412531
0.0375083
0.033509
0.029387
0.025219
0.0210392
0.016853
0.012648
0.00840589
0.0041114
-0.000238788
-0.00462919
-0.00902061
-0.0133484
-0.0175252
-0.0214497
-0.0250209
-0.0281546
-0.0307978
-0.0329349
-0.034583
-0.0357799
-0.0365694
-0.0369868
-0.0370495
-0.0367506
-0.0360556
-0.0349018
-0.0331979
-0.0308263
-0.0276457
-0.023497
-0.0182124
-0.0116292
-0.0036109
0.00592415
0.0169662
0.0293728
0.0428327
0.0568477
0.0707544
0.0837951
0.0952344
0.10449
0.111235
0.115442
0.117367
0.0514351
0.0499523
0.0473004
0.043833
0.0398302
0.0354996
0.0309844
0.0263738
0.0217148
0.0170247
0.0123018
0.00753584
0.00271683
-0.00215642
-0.00706936
-0.0119857
-0.0168435
-0.0215548
-0.0260102
-0.0300898
-0.0336806
-0.0366955
-0.0390872
-0.0408518
-0.0420202
-0.0426408
-0.0427613
-0.0424138
-0.0416046
-0.0403105
-0.0384781
-0.036026
-0.0328492
-0.0288253
-0.0238225
-0.0177101
-0.0103725
-0.00172554
0.00826168
0.0195426
0.0319664
0.0452544
0.0589856
0.0726053
0.0854651
0.0969003
0.106333
0.113372
0.117886
0.12002
0.0526431
0.051225
0.0486229
0.0451479
0.0410628
0.0365736
0.0318304
0.0269328
0.02194
0.0168803
0.0117618
0.00658165
0.00133456
-0.0039792
-0.0093466
-0.0147354
-0.0200887
-0.0253212
-0.0303205
-0.0349528
-0.0390775
-0.0425675
-0.0453303
-0.0473222
-0.0485485
-0.0490502
-0.0488827
-0.0480945
-0.0467126
-0.0447339
-0.0421251
-0.0388257
-0.0347548
-0.0298203
-0.0239287
-0.0169967
-0.00896314
0.000198106
0.010465
0.0217537
0.0339051
0.0466735
0.0597183
0.0726057
0.084826
0.0958327
0.105105
0.112228
0.116962
0.119301
0.0523268
0.0510542
0.0486342
0.0453084
0.0413051
0.036819
0.032002
0.0269627
0.0217712
0.0164672
0.0110683
0.00557912
-1.01721e-06
-0.00567026
-0.0114172
-0.0172142
-0.0230105
-0.0287272
-0.0342539
-0.0394502
-0.0441548
-0.0482031
-0.0514505
-0.0537967
-0.0551991
-0.0556698
-0.0552583
-0.0540266
-0.0520267
-0.0492874
-0.0458091
-0.0415672
-0.0365199
-0.030619
-0.023821
-0.016098
-0.00744769
0.00209893
0.0124714
0.0235555
0.0351901
0.0471647
0.0592171
0.0710316
0.0822416
0.0924402
0.101205
0.10814
0.112936
0.115422
0.0507021
0.0496313
0.0474957
0.0444493
0.0406701
0.036331
0.0315799
0.0265313
0.0212657
0.0158336
0.0102625
0.00456492
-0.00125481
-0.00719281
-0.0132389
-0.0193695
-0.0255409
-0.0316821
-0.0376893
-0.0434229
-0.0487107
-0.0533593
-0.0571754
-0.0599941
-0.0617048
-0.0622651
-0.0616951
-0.0600569
-0.0574275
-0.0538766
-0.0494547
-0.044192
-0.038104
-0.0312022
-0.0235042
-0.0150435
-0.00587616
0.00391598
0.014225
0.0249191
0.0358459
0.0468347
0.0576971
0.0682236
0.0781772
0.0872866
0.0952437
0.101713
0.106357
0.108879
0.0480379
0.0471926
0.0454017
0.0427259
0.0392819
0.0352098
0.0306459
0.0257063
0.0204796
0.0150267
0.00938529
0.00357579
-0.0023916
-0.0085102
-0.0147701
-0.0211511
-0.0276158
-0.0341019
-0.0405144
-0.0467205
-0.0525461
-0.0577817
-0.0621964
-0.065565
-0.0677003
-0.0684827
-0.067875
-0.0659154
-0.0626945
-0.0583267
-0.0529274
-0.0466017
-0.0394433
-0.0315399
-0.0229811
-0.0138647
-0.00430034
0.00559056
0.0156781
0.025829
0.0359123
0.0458024
0.0553795
0.0645242
0.0731065
0.0809703
0.0879157
0.0936856
0.0979622
0.100382
0.0446305
0.0440018
0.0425688
0.0403086
0.0372722
0.0335577
0.0292808
0.0245527
0.0194665
0.0140917
0.0084756
0.00264711
-0.00337718
-0.0095868
-0.0159709
-0.0225113
-0.0291757
-0.0359095
-0.0426275
-0.0492061
-0.0554768
-0.0612255
-0.0661993
-0.0701269
-0.0727505
-0.0738651
-0.0733526
-0.0711988
-0.0674849
-0.0623616
-0.0560163
-0.0486464
-0.0404434
-0.0315881
-0.0222506
-0.0125934
-0.00277147
0.00706851
0.016792
0.026281
0.0354376
0.0441855
0.0524671
0.0602366
0.0674462
0.0740282
0.0798718
0.0847979
0.0885384
0.0907232
0.040769
0.0403233
0.0392197
0.0373735
0.0347755
0.0314762
0.027562
0.0231309
0.0182748
0.013069
0.00756866
0.00181122
-0.00417985
-0.0103893
-0.0168038
-0.0234057
-0.0301658
-0.0370355
-0.0439381
-0.0507599
-0.0573418
-0.0634736
-0.0688953
-0.0733085
-0.0764036
-0.0778992
-0.0775904
-0.0753876
-0.0713347
-0.0655969
-0.0584261
-0.0501181
-0.0409759
-0.031286
-0.0213056
-0.0112594
-0.00133781
0.00830225
0.0175379
0.0262804
0.0344736
0.0420915
0.0491315
0.0556052
0.0615245
0.0668841
0.0716385
0.075676
0.0787893
0.0806481
0.036704
0.0363953
0.0355646
0.0340926
0.0319239
0.0290633
0.0255611
0.0214943
0.016946
0.0119922
0.00669377
0.00109543
-0.00477225
-0.0108882
-0.0172355
-0.0237947
-0.0305377
-0.0374192
-0.044369
-0.0512819
-0.0580089
-0.064349
-0.0700459
-0.0747931
-0.0782532
-0.0800931
-0.0800347
-0.0779099
-0.0737035
-0.067566
-0.0597896
-0.0507567
-0.040881
-0.0305578
-0.0201331
-0.00988936
-4.28869e-05
0.00925191
0.0178962
0.0258395
0.0330713
0.0396132
0.0455086
0.0508118
0.0555755
0.0598348
0.0635886
0.0667769
0.0692521
0.0707478
0.0326269
0.0324093
0.0317833
0.0306213
0.0288412
0.0264106
0.0233434
0.0196885
0.0155129
0.0108867
0.00587238
0.000520018
-0.00513318
-0.0110599
-0.0172379
-0.0236444
-0.0302498
-0.0370096
-0.043857
-0.0506932
-0.0573781
-0.0637218
-0.069479
-0.0743501
-0.0779939
-0.0800561
-0.0802153
-0.0782433
-0.0740634
-0.0677876
-0.0597135
-0.0502778
-0.0399824
-0.0293195
-0.0187164
-0.00850665
0.00107528
0.00988541
0.0178552
0.0249747
0.0312775
0.0368259
0.041699
0.0459809
0.0497491
0.0530628
0.0559488
0.0583836
0.0602714
0.0614155
0.0286657
0.0285007
0.0280143
0.0270897
0.0256373
0.023602
0.020967
0.0177511
0.0139989
0.00976776
0.00511623
9.63304e-05
-0.00524951
-0.0108876
-0.0167897
-0.0229279
-0.0292687
-0.0357661
-0.0423537
-0.0489365
-0.0553819
-0.0615114
-0.0670952
-0.0718513
-0.0754545
-0.0775582
-0.0778342
-0.0760269
-0.0720165
-0.0658694
-0.0578568
-0.048424
-0.0381176
-0.0274939
-0.0170411
-0.0071329
0.00198379
0.0101774
0.0174084
0.023703
0.0291309
0.0337858
0.0377709
0.0411878
0.044127
0.0466595
0.0488275
0.0506325
0.0520194
0.0528554
0.0248927
0.0247521
0.0243515
0.0235958
0.0224033
0.0207116
0.0184841
0.0157135
0.0124195
0.00864097
0.00442642
-0.000174812
-0.00511786
-0.0103638
-0.0158779
-0.021626
-0.0275694
-0.0336581
-0.0398245
-0.0459753
-0.0519843
-0.0576848
-0.0628657
-0.0672706
-0.0706047
-0.0725534
-0.0728132
-0.0711378
-0.0673939
-0.0616133
-0.054023
-0.0450334
-0.0351799
-0.0250322
-0.0151042
-0.00579096
0.00265369
0.0101075
0.0165516
0.0220379
0.0266597
0.0305295
0.0337629
0.0364682
0.0387391
0.0406497
0.0422486
0.0435532
0.0445389
0.0451248
0.0213381
0.0212034
0.0208491
0.0202057
0.0192089
0.0178019
0.0159413
0.0136027
0.010784
0.00750311
0.00379336
-0.000304092
-0.0047461
-0.0094909
-0.0144984
-0.0197282
-0.0251352
-0.0306652
-0.0362481
-0.0417922
-0.0471776
-0.0522515
-0.0568247
-0.0606727
-0.0635424
-0.0651671
-0.0652916
-0.0637076
-0.0602976
-0.0550781
-0.0482301
-0.0401
-0.0311608
-0.0219381
-0.0129242
-0.00450792
0.00305878
0.00965815
0.0152798
0.0199857
0.0238775
0.0270725
0.0296867
0.0318251
0.033577
0.0350124
0.0361807
0.0371074
0.0377892
0.0381851
0.0180044
0.0178644
0.0175299
0.0169569
0.0161019
0.0149222
0.0133794
0.0114437
0.00909888
0.0063451
0.00319811
-0.000313835
-0.00415452
-0.00828353
-0.0126582
-0.0172333
-0.0219589
-0.0267766
-0.0316154
-0.0363865
-0.0409791
-0.0452573
-0.0490586
-0.0521963
-0.0544663
-0.0556598
-0.0555824
-0.0540803
-0.0510704
-0.0465708
-0.0407235
-0.033799
-0.0261745
-0.0182833
-0.0105479
-0.00331662
0.00317569
0.00881406
0.0135844
0.0175423
0.0207813
0.0234086
0.0255288
0.0272347
0.0286038
0.0296971
0.0305592
0.0312183
0.0316845
0.031945
0.0148787
0.0147275
0.0143967
0.0138652
0.0131105
0.0121081
0.0108323
0.00925933
0.0073703
0.00515511
0.00261488
-0.000237152
-0.00337655
-0.00676988
-0.0103769
-0.0141518
-0.018043
-0.0219917
-0.0259291
-0.0297736
-0.0334282
-0.0367792
-0.0396963
-0.0420356
-0.0436465
-0.0443815
-0.0441101
-0.042736
-0.0402154
-0.0365752
-0.0319248
-0.0264596
-0.0204489
-0.0142069
-0.00805059
-0.00225395
0.00298609
0.00756313
0.0114529
0.0146913
0.0173487
0.0195081
0.0212509
0.0226488
0.0237609
0.0246335
0.0253019
0.0257919
0.0261201
0.0262927
0.0119424
0.0117775
0.0114415
0.0109329
0.0102482
0.00938139
0.00832465
0.00706872
0.00560371
0.00392055
0.00201357
-0.000116348
-0.00245903
-0.00499383
-0.00769017
-0.010509
-0.0134042
-0.0163232
-0.0192064
-0.0219863
-0.0245866
-0.0269224
-0.0289008
-0.0304246
-0.0313972
-0.0317297
-0.0313494
-0.0302097
-0.0282992
-0.0256497
-0.0223399
-0.0184959
-0.0142835
-0.00989468
-0.00552612
-0.00135525
0.00248133
0.00590018
0.00887067
0.011404
0.0135368
0.0153162
0.0167891
0.017996
0.0189699
0.0197367
0.0203171
0.0207291
0.0209896
0.0211155
0.00917876
0.00900002
0.00865506
0.00815723
0.00751872
0.00675181
0.00586909
0.00488229
0.00380017
0.00262668
0.00136071
-1.52369e-06
-0.00146215
-0.00301721
-0.00465408
-0.00635125
-0.00807968
-0.00980448
-0.0114862
-0.0130814
-0.0145433
-0.0158223
-0.0168672
-0.0176278
-0.0180571
-0.018116
-0.0177766
-0.0170261
-0.0158703
-0.0143347
-0.012465
-0.0103241
-0.00798872
-0.00554265
-0.00306978
-0.000645905
0.00166849
0.00383263
0.00582552
0.00764136
0.00928237
0.0107522
0.012052
0.0131802
0.0141334
0.0149089
0.0155066
0.0159309
0.0161923
0.0163101
0.00658138
0.00639131
0.00603552
0.00553684
0.00492087
0.00421811
0.00346383
0.00269565
0.0019488
0.00125068
0.000616602
4.90105e-05
-0.000459698
-0.000922069
-0.00135061
-0.00175451
-0.00213835
-0.00250226
-0.00284272
-0.00315358
-0.00342703
-0.00365444
-0.00382714
-0.00393724
-0.00397828
-0.00394593
-0.00383849
-0.00365713
-0.00340579
-0.00309061
-0.00271891
-0.00229761
-0.0018313
-0.00132014
-0.000758092
-0.000132208
0.000576096
0.00138684
0.00231447
0.00335972
0.00450376
0.00570775
0.00691858
0.00807813
0.0091325
0.0100383
0.0107658
0.0112988
0.0116353
0.0117877
)
;

boundaryField
{
    left
    {
        type            zeroGradient;
    }
    right
    {
        type            zeroGradient;
    }
    bottom
    {
        type            fixedValue;
        value           uniform 0;
    }
    top
    {
        type            fixedValue;
        value           uniform 0;
    }
    frontAndBack
    {
        type            empty;
    }
}


// ************************************************************************* //
